      -----------------------------------------------------------      
     |                   =====================                   |     
     |                           x T B                           |     
     |                   =====================                   |     
     |                         S. Grimme                         |     
     |          Mulliken Center for Theoretical Chemistry        |     
     |                    University of Bonn                     |     
      -----------------------------------------------------------      

   * xtb version 6.6.0 (conda-forge) compiled by 'runner@Mac-1676020903829.local' on 2023-02-10

   xtb is free software: you can redistribute it and/or modify it under
   the terms of the GNU Lesser General Public License as published by
   the Free Software Foundation, either version 3 of the License, or
   (at your option) any later version.
   
   xtb is distributed in the hope that it will be useful,
   but WITHOUT ANY WARRANTY; without even the implied warranty of
   MERCHANTABILITY or FITNESS FOR A PARTICULAR PURPOSE.  See the
   GNU Lesser General Public License for more details.
   
   Cite this work as:
   * C. Bannwarth, E. Caldeweyher, S. Ehlert, A. Hansen, P. Pracht,
     J. Seibert, S. Spicher, S. Grimme, WIREs Comput. Mol. Sci., 2020, 11,
     e01493. DOI: 10.1002/wcms.1493
   
   for GFN2-xTB:
   * C. Bannwarth, S. Ehlert and S. Grimme., J. Chem. Theory Comput., 2019,
     15, 1652-1671. DOI: 10.1021/acs.jctc.8b01176
   for GFN1-xTB:
   * S. Grimme, C. Bannwarth, P. Shushkov, J. Chem. Theory Comput., 2017,
     13, 1989-2009. DOI: 10.1021/acs.jctc.7b00118
   for GFN0-xTB:
   * P. Pracht, E. Caldeweyher, S. Ehlert, S. Grimme, ChemRxiv, 2019, preprint.
     DOI: 10.26434/chemrxiv.8326202.v1
   for GFN-FF:
   * S. Spicher and S. Grimme, Angew. Chem. Int. Ed., 2020, 59, 15665-15673.
     DOI: 10.1002/anie.202004239
   
   for ALPB and GBSA implicit solvation:
   * S. Ehlert, M. Stahn, S. Spicher, S. Grimme, J. Chem. Theory Comput.,
     2021, 17, 4250-4261. DOI: 10.1021/acs.jctc.1c00471
   
   for DFT-D4:
   * E. Caldeweyher, C. Bannwarth and S. Grimme, J. Chem. Phys., 2017,
     147, 034112. DOI: 10.1063/1.4993215
   * E. Caldeweyher, S. Ehlert, A. Hansen, H. Neugebauer, S. Spicher,
     C. Bannwarth and S. Grimme, J. Chem. Phys., 2019, 150, 154122.
     DOI: 10.1063/1.5090222
   * E. Caldeweyher, J.-M. Mewes, S. Ehlert and S. Grimme, Phys. Chem. Chem. Phys.
     2020, 22, 8499-8512. DOI: 10.1039/D0CP00502A
   
   for sTDA-xTB:
   * S. Grimme and C. Bannwarth, J. Chem. Phys., 2016, 145, 054103.
     DOI: 10.1063/1.4959605
   
   in the mass-spec context:
   * V. Asgeirsson, C. Bauer and S. Grimme, Chem. Sci., 2017, 8, 4879.
     DOI: 10.1039/c7sc00601b
   * J. Koopman and S. Grimme, ACS Omega 2019, 4, 12, 15120-15133.
     DOI: 10.1021/acsomega.9b02011
   
   for metadynamics refer to:
   * S. Grimme, J. Chem. Theory Comput., 2019, 155, 2847-2862
     DOI: 10.1021/acs.jctc.9b00143
   
   for SPH calculations refer to:
   * S. Spicher and S. Grimme, J. Chem. Theory Comput., 2021, 17, 1701-1714
     DOI: 10.1021/acs.jctc.0c01306
   
   with help from (in alphabetical order)
   P. Atkinson, C. Bannwarth, F. Bohle, G. Brandenburg, E. Caldeweyher
   M. Checinski, S. Dohm, S. Ehlert, S. Ehrlich, I. Gerasimov, C. Hölzer
   A. Katbashev, J. Koopman, C. Lavigne, S. Lehtola, F. März, M. Müller,
   F. Musil, H. Neugebauer, J. Pisarek, C. Plett, P. Pracht, F. Pultar,
   J. Seibert, P. Shushkov, S. Spicher, M. Stahn, M. Steiner, T. Strunk,
   J. Stückrath, T. Rose, and J. Unsleber
   
 * started run on 2024/03/27 at 10:26:36.220     

           -------------------------------------------------
          |                Calculation Setup                |
           -------------------------------------------------

          program call               : /Users/nicolairee/opt/miniforge3/envs/alfabet/bin/xtb --gfn 1 /Users/nicolairee/KU_data/esnuelML/ESNUEL_ML/calculations/449c7b921c039b2a6378103b6234fd1f/449c7b921c039b2a6378103b6234fd1f.xyz --lmo --chrg 0 --uhf 0
          coordinate file            : /Users/nicolairee/KU_data/esnuelML/ESNUEL_ML/calculations/449c7b921c039b2a6378103b6234fd1f/449c7b921c039b2a6378103b6234fd1f.xyz
          omp threads                :                     1

   ID    Z sym.   atoms
    1    6 C      1, 3, 6-11, 13-16
    2    7 N      2
    3    8 O      4, 5, 12
    4    1 H      17-31

           -------------------------------------------------
          |                 G F N 1 - x T B                 |
           -------------------------------------------------

        Reference                      10.1021/acs.jctc.7b00118
      * Hamiltonian:
        H0-scaling (s, p, d)           1.850000    2.250000    2.000000
        zeta-weighting                 0.000000
      * Dispersion:
        s8                             2.400000
        a1                             0.630000
        a2                             5.000000
        s9                             0.000000
      * Repulsion:
        kExp                           1.500000
        rExp                           1.000000
      * Coulomb:
        alpha                          2.000000
        third order                    atomic
        anisotropic                    false
      * Halogen bond correction:
        rad-scale                      1.300000
        damping                        0.440000


          ...................................................
          :                      SETUP                      :
          :.................................................:
          :  # basis functions                  94          :
          :  # atomic orbitals                  94          :
          :  # shells                           62          :
          :  # electrons                        86          :
          :  # halogen bonds                     0          :
          :  max. iterations                   250          :
          :  Hamiltonian                  GFN1-xTB          :
          :  restarted?                      false          :
          :  GBSA solvation                  false          :
          :  PC potential                    false          :
          :  electronic temp.          300.0000000     K    :
          :  accuracy                    1.0000000          :
          :  -> integral cutoff          0.2500000E+02      :
          :  -> integral neglect         0.1000000E-07      :
          :  -> SCF convergence          0.1000000E-05 Eh   :
          :  -> wf. convergence          0.2000000E-04 e    :
          :  Broyden damping             0.4000000          :
          ...................................................

 iter      E             dE          RMSdq      gap      omega  full diag
   1    -51.1845234 -0.511845E+02  0.883E+00    4.21       0.0  T
   2    -51.3661938 -0.181670E+00  0.527E+00    4.17       1.0  T
   3    -51.3494876  0.167062E-01  0.144E+00    3.97       1.0  T
   4    -51.3766498 -0.271622E-01  0.179E-01    4.10       1.0  T
   5    -51.3776255 -0.975764E-03  0.516E-02    4.08       1.0  T
   6    -51.3777047 -0.792065E-04  0.104E-02    4.09       1.7  T
   7    -51.3777076 -0.287050E-05  0.219E-03    4.09       8.2  T
   8    -51.3777077 -0.930890E-07  0.787E-04    4.09      22.8  T
   9    -51.3777077 -0.687064E-08  0.216E-04    4.09      83.3  T
  10    -51.3777077 -0.398593E-09  0.528E-05    4.09     340.3  T
  11    -51.3777077 -0.407283E-10  0.247E-05    4.09     727.6  T

   *** convergence criteria satisfied after 11 iterations ***

         #    Occupation            Energy/Eh            Energy/eV
      -------------------------------------------------------------
         1        2.0000           -0.8193765             -22.2964
       ...           ...                  ...                  ...
        37        2.0000           -0.4747456             -12.9185
        38        2.0000           -0.4737391             -12.8911
        39        2.0000           -0.4674334             -12.7195
        40        2.0000           -0.4615305             -12.5589
        41        2.0000           -0.4313406             -11.7374
        42        2.0000           -0.4273050             -11.6276
        43        2.0000           -0.4107935             -11.1783 (HOMO)
        44                         -0.2605471              -7.0898 (LUMO)
        45                         -0.2511452              -6.8340
        46                         -0.2238464              -6.0912
        47                         -0.1398226              -3.8048
        48                         -0.1328888              -3.6161
       ...                                ...                  ...
        94                          0.6988657              19.0171
      -------------------------------------------------------------
                  HL-Gap            0.1502464 Eh            4.0884 eV
             Fermi-level           -0.3356703 Eh           -9.1341 eV

 localization/xTB-IFF output generation
 averaging CT terms over            1  occ. levels
 averaging CT terms over            2  virt. levels
 dipole moment from electron density (au)
     X       Y       Z   
  -0.2478   0.6129  -0.8404  total (Debye):    2.718
cpu  time for init local    0.01 s
wall time for init local    0.01 s
 doing rotations ...
 initialization of trafo matrix to unity

 converged in     36 iterations, threshold :   0.99969274D-06
 doing transformations ...
 lmo centers(Z=2) and atoms on file <lmocent.coord>
 LMO Fii/eV  ncent    charge center   contributions...
    1 sigma -19.31   1.85   4.21375  -0.78104  -0.56558    5O :  0.65    3C :  0.35
    2 sigma -19.21   1.83   3.08069  -1.60621  -1.38926    5O :  0.65    6C :  0.35
    3 sigma -18.85   1.86  -0.71167   0.43714  -1.03295   12O :  0.63   11C :  0.37
    4 sigma -18.52   1.82  -1.85682   1.61851  -0.76922   12O :  0.65   13C :  0.35
    5 sigma -17.58   1.89   7.12859   1.52792  -0.57319    2N :  0.61   20H :  0.39
    6 sigma -17.51   1.89   7.37775   1.83869   1.35211    2N :  0.61    1C :  0.40
    7 pi    -17.04   1.81   3.92265  -0.18500   2.15962    4O :  0.66    3C :  0.34
    8 pi    -17.03   1.82   4.49509  -0.95366   2.23381    4O :  0.66    3C :  0.34
    9 sigma -16.72   1.83   5.91782   0.96372   0.61380    2N :  0.64    3C :  0.36
   10 LP    -16.68   1.09   3.79951   0.19800  -2.38439    5O :  0.96
   11 LP    -16.50   1.10   5.18708  -2.07844  -1.67547    5O :  0.95
   12 sigma -16.27   2.00   0.57706  -1.68679  -1.19831   11C :  0.51    6C :  0.49
   13 LP    -16.20   1.06   0.23313   2.06702   0.08992   12O :  0.97
   14 LP    -15.97   1.10  -0.63560   1.63330  -2.55536   12O :  0.95
   15 sigma -15.87   2.00  -2.94101  -3.69558  -1.04433   10C :  0.51    9C :  0.49
   16 sigma -15.68   1.99   0.53318  -5.69206  -1.39240    7C :  0.51    8C :  0.50
   17 sigma -15.56   1.98  -3.96469  -1.53636  -0.91230   16C :  0.50   10C :  0.50
   18 sigma -15.41   1.97   9.27979   3.01597   2.13401    1C :  0.51   17H :  0.49
   19 sigma -15.38   1.96  -4.24891   0.65552  -0.60173   16C :  0.51   13C :  0.50
   20 sigma -15.34   2.01  -5.82032  -0.86654   0.13859   16C :  0.51   30H :  0.48
   21 sigma -15.34   2.02  -5.58619  -0.54947  -2.03824   16C :  0.51   31H :  0.48
   22 sigma -15.32   1.96  -3.96130   2.96356  -1.16189   13C :  0.51   14C :  0.50
   23 sigma -15.30   1.96   7.25572   3.75376   2.72877    1C :  0.52   18H :  0.49
   24 sigma -15.26   1.95  -3.51230   2.24625   1.04522   13C :  0.51   15C :  0.50
   25 sigma -15.23   1.96   8.06296   1.89833   3.61949    1C :  0.53   19H :  0.48
   26 sigma -15.20   2.00  -4.10180  -5.69288  -1.06686    9C :  0.51   23H :  0.49
   27 sigma -15.17   1.96  -5.75759   4.31634  -1.69942   14C :  0.51   24H :  0.50
   28 LP    -15.13   1.04   2.51890  -1.74553   3.01074    4O :  0.98
   29 sigma -15.13   2.00   2.82531  -5.71142  -1.56319    7C :  0.52   21H :  0.48
   30 sigma -15.09   2.00  -0.64032  -7.69581  -1.39893    8C :  0.51   22H :  0.49
   31 LP    -15.02   1.07   4.77270   0.03984   4.14080    4O :  0.97
   32 sigma -15.00   1.99  -4.82554   2.89955   2.83828   15C :  0.51   29H :  0.49
   33 sigma -14.97   1.98  -4.33220   3.73854  -3.29294   14C :  0.52   26H :  0.49
   34 sigma -14.95   1.98  -3.71685   5.16764  -1.76143   14C :  0.52   25H :  0.49
   35 sigma -14.84   1.98  -3.04926   1.64135   3.21461   15C :  0.52   27H :  0.48
   36 sigma -14.83   1.98  -2.78390   3.72823   2.65057   15C :  0.52   28H :  0.48
   37 delpi -14.49   2.34   1.40199  -3.64402  -1.84590    6C :  0.47    7C :  0.45
   38 delpi -14.48   2.42  -1.60539  -2.08476  -0.59679   10C :  0.47   11C :  0.43
   39 pi    -14.45   1.44   6.79876   0.54974   0.59782    2N :  0.81    3C :  0.18
   40 delpi -14.45   2.34   1.47092  -3.70960  -0.85899    6C :  0.47    7C :  0.45
   41 delpi -14.37   2.46  -1.67355  -2.08323  -1.54814   10C :  0.47   11C :  0.43
   42 delpi -14.28   2.32  -1.57143  -5.50441  -0.73908    8C :  0.47    9C :  0.46
   43 delpi -14.28   2.33  -1.62856  -5.45600  -1.71644    8C :  0.47    9C :  0.45
 starting deloc pi regularization ...
 thr    2.2000000000000002      # pi deloc LMO           6
 files:
 coordprot.0/xtbscreen.xyz/xtblmoinfo/lmocent.coord
 with protonation site input, xtbdock and
 LMO center info written


 SCC (total)                   0 d,  0 h,  0 min,  0.069 sec
 SCC setup                      ...        0 min,  0.000 sec (  0.305%)
 Dispersion                     ...        0 min,  0.000 sec (  0.221%)
 classical contributions        ...        0 min,  0.000 sec (  0.126%)
 integral evaluation            ...        0 min,  0.013 sec ( 18.795%)
 iterations                     ...        0 min,  0.019 sec ( 27.252%)
 molecular gradient             ...        0 min,  0.023 sec ( 32.725%)
 printout                       ...        0 min,  0.014 sec ( 20.566%)

         :::::::::::::::::::::::::::::::::::::::::::::::::::::
         ::                     SUMMARY                     ::
         :::::::::::::::::::::::::::::::::::::::::::::::::::::
         :: total energy             -50.804783137354 Eh    ::
         :: gradient norm              0.076325090743 Eh/a0 ::
         :: HOMO-LUMO gap              4.088412561436 eV    ::
         ::.................................................::
         :: SCC energy               -51.377707708971 Eh    ::
         :: -> electrostatic           0.143180401990 Eh    ::
         :: repulsion energy           0.589890040135 Eh    ::
         :: dispersion energy         -0.016965468517 Eh    ::
         :: halogen bond corr.         0.000000000000 Eh    ::
         :: add. restraining           0.000000000000 Eh    ::
         :: total charge              -0.000000000000 e     ::
         :::::::::::::::::::::::::::::::::::::::::::::::::::::

           -------------------------------------------------
          |                Property Printout                |
           -------------------------------------------------

    * Orbital Energies and Occupations

         #    Occupation            Energy/Eh            Energy/eV
      -------------------------------------------------------------
         1        2.0000           -0.8193765             -22.2964
       ...           ...                  ...                  ...
        31        2.0000           -0.5157472             -14.0342
        32        2.0000           -0.5146418             -14.0041
        33        2.0000           -0.5095139             -13.8646
        34        2.0000           -0.5039345             -13.7128
        35        2.0000           -0.4968153             -13.5190
        36        2.0000           -0.4830515             -13.1445
        37        2.0000           -0.4747456             -12.9185
        38        2.0000           -0.4737391             -12.8911
        39        2.0000           -0.4674334             -12.7195
        40        2.0000           -0.4615305             -12.5589
        41        2.0000           -0.4313406             -11.7374
        42        2.0000           -0.4273050             -11.6276
        43        2.0000           -0.4107935             -11.1783 (HOMO)
        44                         -0.2605471              -7.0898 (LUMO)
        45                         -0.2511452              -6.8340
        46                         -0.2238464              -6.0912
        47                         -0.1398226              -3.8048
        48                         -0.1328888              -3.6161
        49                         -0.1305875              -3.5535
        50                         -0.1251580              -3.4057
        51                         -0.1189965              -3.2381
        52                         -0.1049313              -2.8553
        53                         -0.0985649              -2.6821
        54                         -0.0902988              -2.4572
       ...                                ...                  ...
        94                          0.6988657              19.0171
      -------------------------------------------------------------
                  HL-Gap            0.1502464 Eh            4.0884 eV
             Fermi-level           -0.3356703 Eh           -9.1341 eV

  Mulliken/CM5 charges         n(s)   n(p)   n(d)
     1C     0.07239 -0.01384   0.976  2.952  0.000
     2N    -0.35008 -0.70955   1.415  3.935  0.000
     3C     0.65333  0.77538   0.924  2.423  0.000
     4O    -0.56772 -0.60680   1.724  4.843  0.000
     5O    -0.42278 -0.47920   1.692  4.731  0.000
     6C     0.22636  0.24904   1.004  2.769  0.000
     7C    -0.05869 -0.10839   1.064  2.995  0.000
     8C    -0.04412 -0.09883   1.057  2.987  0.000
     9C    -0.04494 -0.09766   1.056  2.989  0.000
    10C    -0.03555 -0.04440   1.079  2.956  0.000
    11C     0.22990  0.25486   1.018  2.752  0.000
    12O    -0.42285 -0.48962   1.708  4.715  0.000
    13C     0.24521  0.23982   1.058  2.697  0.000
    14C    -0.10155 -0.24415   1.018  3.083  0.000
    15C    -0.10500 -0.24742   1.020  3.085  0.000
    16C    -0.06964 -0.16584   1.035  3.034  0.000
    17H     0.02902  0.09044   0.971  0.000  0.000
    18H     0.03721  0.09964   0.963  0.000  0.000
    19H     0.05449  0.11862   0.946  0.000  0.000
    20H     0.23530  0.43419   0.765  0.000  0.000
    21H     0.04984  0.10826   0.950  0.000  0.000
    22H     0.03369  0.08897   0.966  0.000  0.000
    23H     0.03376  0.08979   0.966  0.000  0.000
    24H     0.02870  0.08097   0.971  0.000  0.000
    25H     0.04527  0.09908   0.955  0.000  0.000
    26H     0.04011  0.09403   0.960  0.000  0.000
    27H     0.04949  0.10396   0.951  0.000  0.000
    28H     0.04738  0.10132   0.953  0.000  0.000
    29H     0.02746  0.07971   0.973  0.000  0.000
    30H     0.04102  0.09745   0.959  0.000  0.000
    31H     0.04296  0.10014   0.957  0.000  0.000

Wiberg/Mayer (AO) data.
largest (>0.10) Wiberg bond orders for each atom

 ---------------------------------------------------------------------------
     #   Z sym  total        # sym  WBO       # sym  WBO       # sym  WBO
 ---------------------------------------------------------------------------
     1   6 C    3.951 --    17 H    0.991    19 H    0.984    18 H    0.983
                             2 N    0.960
     2   7 N    3.277 --     3 C    1.199     1 C    0.960    20 H    0.913
                             4 O    0.147
     3   6 C    3.874 --     4 O    1.618     2 N    1.199     5 O    0.991
     4   8 O    1.902 --     3 C    1.618     2 N    0.147     5 O    0.105
     5   8 O    2.164 --     3 C    0.991     6 C    0.940     4 O    0.105
     6   6 C    3.894 --     7 C    1.404    11 C    1.351     5 O    0.940
     7   6 C    3.991 --     8 C    1.440     6 C    1.404    21 H    0.972
                            10 C    0.103
     8   6 C    3.992 --     7 C    1.440     9 C    1.428    22 H    0.975
     9   6 C    3.994 --    10 C    1.433     8 C    1.428    23 H    0.974
    10   6 C    3.987 --     9 C    1.433    11 C    1.344    16 C    1.013
                             7 C    0.103
    11   6 C    3.917 --     6 C    1.351    10 C    1.344    12 O    1.030
    12   8 O    2.131 --    11 C    1.030    13 C    0.900
    13   6 C    3.896 --    14 C    0.999    15 C    0.995    16 C    0.977
                            12 O    0.900
    14   6 C    3.994 --    13 C    0.999    24 H    0.987    26 H    0.983
                            25 H    0.983
    15   6 C    3.993 --    13 C    0.995    29 H    0.987    27 H    0.983
                            28 H    0.983
    16   6 C    3.998 --    10 C    1.013    13 C    0.977    30 H    0.970
                            31 H    0.962
    17   1 H    1.006 --     1 C    0.991
    18   1 H    1.004 --     1 C    0.983
    19   1 H    1.008 --     1 C    0.984
    20   1 H    0.952 --     2 N    0.913
    21   1 H    1.000 --     7 C    0.972
    22   1 H    1.003 --     8 C    0.975
    23   1 H    1.001 --     9 C    0.974
    24   1 H    1.004 --    14 C    0.987
    25   1 H    1.004 --    14 C    0.983
    26   1 H    1.007 --    14 C    0.983
    27   1 H    1.001 --    15 C    0.983
    28   1 H    1.005 --    15 C    0.983
    29   1 H    1.004 --    15 C    0.987
    30   1 H    1.005 --    16 C    0.970
    31   1 H    1.006 --    16 C    0.962
 ---------------------------------------------------------------------------

Topologies differ in total number of bonds
Writing topology from bond orders to xtbtopo.mol

 dipole moment from electron density (au)
     X       Y       Z   
  -0.2478   0.6129  -0.8404  total (Debye):    2.718


           -------------------------------------------------
          | TOTAL ENERGY              -50.804783137354 Eh   |
          | GRADIENT NORM               0.076325090743 Eh/α |
          | HOMO-LUMO GAP               4.088412561436 eV   |
           -------------------------------------------------

------------------------------------------------------------------------
 * finished run on 2024/03/27 at 10:26:36.303     
------------------------------------------------------------------------
 total:
 * wall-time:     0 d,  0 h,  0 min,  0.082 sec
 *  cpu-time:     0 d,  0 h,  0 min,  0.081 sec
 * ratio c/w:     0.983 speedup
 SCF:
 * wall-time:     0 d,  0 h,  0 min,  0.069 sec
 *  cpu-time:     0 d,  0 h,  0 min,  0.069 sec
 * ratio c/w:     0.996 speedup

