      -----------------------------------------------------------      
     |                   =====================                   |     
     |                           x T B                           |     
     |                   =====================                   |     
     |                         S. Grimme                         |     
     |          Mulliken Center for Theoretical Chemistry        |     
     |                    University of Bonn                     |     
      -----------------------------------------------------------      

   * xtb version 6.6.0 (conda-forge) compiled by 'runner@Mac-1676020903829.local' on 2023-02-10

   xtb is free software: you can redistribute it and/or modify it under
   the terms of the GNU Lesser General Public License as published by
   the Free Software Foundation, either version 3 of the License, or
   (at your option) any later version.
   
   xtb is distributed in the hope that it will be useful,
   but WITHOUT ANY WARRANTY; without even the implied warranty of
   MERCHANTABILITY or FITNESS FOR A PARTICULAR PURPOSE.  See the
   GNU Lesser General Public License for more details.
   
   Cite this work as:
   * C. Bannwarth, E. Caldeweyher, S. Ehlert, A. Hansen, P. Pracht,
     J. Seibert, S. Spicher, S. Grimme, WIREs Comput. Mol. Sci., 2020, 11,
     e01493. DOI: 10.1002/wcms.1493
   
   for GFN2-xTB:
   * C. Bannwarth, S. Ehlert and S. Grimme., J. Chem. Theory Comput., 2019,
     15, 1652-1671. DOI: 10.1021/acs.jctc.8b01176
   for GFN1-xTB:
   * S. Grimme, C. Bannwarth, P. Shushkov, J. Chem. Theory Comput., 2017,
     13, 1989-2009. DOI: 10.1021/acs.jctc.7b00118
   for GFN0-xTB:
   * P. Pracht, E. Caldeweyher, S. Ehlert, S. Grimme, ChemRxiv, 2019, preprint.
     DOI: 10.26434/chemrxiv.8326202.v1
   for GFN-FF:
   * S. Spicher and S. Grimme, Angew. Chem. Int. Ed., 2020, 59, 15665-15673.
     DOI: 10.1002/anie.202004239
   
   for ALPB and GBSA implicit solvation:
   * S. Ehlert, M. Stahn, S. Spicher, S. Grimme, J. Chem. Theory Comput.,
     2021, 17, 4250-4261. DOI: 10.1021/acs.jctc.1c00471
   
   for DFT-D4:
   * E. Caldeweyher, C. Bannwarth and S. Grimme, J. Chem. Phys., 2017,
     147, 034112. DOI: 10.1063/1.4993215
   * E. Caldeweyher, S. Ehlert, A. Hansen, H. Neugebauer, S. Spicher,
     C. Bannwarth and S. Grimme, J. Chem. Phys., 2019, 150, 154122.
     DOI: 10.1063/1.5090222
   * E. Caldeweyher, J.-M. Mewes, S. Ehlert and S. Grimme, Phys. Chem. Chem. Phys.
     2020, 22, 8499-8512. DOI: 10.1039/D0CP00502A
   
   for sTDA-xTB:
   * S. Grimme and C. Bannwarth, J. Chem. Phys., 2016, 145, 054103.
     DOI: 10.1063/1.4959605
   
   in the mass-spec context:
   * V. Asgeirsson, C. Bauer and S. Grimme, Chem. Sci., 2017, 8, 4879.
     DOI: 10.1039/c7sc00601b
   * J. Koopman and S. Grimme, ACS Omega 2019, 4, 12, 15120-15133.
     DOI: 10.1021/acsomega.9b02011
   
   for metadynamics refer to:
   * S. Grimme, J. Chem. Theory Comput., 2019, 155, 2847-2862
     DOI: 10.1021/acs.jctc.9b00143
   
   for SPH calculations refer to:
   * S. Spicher and S. Grimme, J. Chem. Theory Comput., 2021, 17, 1701-1714
     DOI: 10.1021/acs.jctc.0c01306
   
   with help from (in alphabetical order)
   P. Atkinson, C. Bannwarth, F. Bohle, G. Brandenburg, E. Caldeweyher
   M. Checinski, S. Dohm, S. Ehlert, S. Ehrlich, I. Gerasimov, C. Hölzer
   A. Katbashev, J. Koopman, C. Lavigne, S. Lehtola, F. März, M. Müller,
   F. Musil, H. Neugebauer, J. Pisarek, C. Plett, P. Pracht, F. Pultar,
   J. Seibert, P. Shushkov, S. Spicher, M. Stahn, M. Steiner, T. Strunk,
   J. Stückrath, T. Rose, and J. Unsleber
   
 * started run on 2024/06/12 at 11:41:00.344     

           -------------------------------------------------
          |                Calculation Setup                |
           -------------------------------------------------

          program call               : /Users/nicolairee/opt/miniforge3/envs/alfabet/bin/xtb --gfn 1 /Users/nicolairee/KU_data/esnuelML/ESNUEL_ML/desc_calcs/6c2e108bc093395f4dd14ae48ce3c5c7/6c2e108bc093395f4dd14ae48ce3c5c7_1.xyz --lmo --chrg -1 --uhf 0
          coordinate file            : /Users/nicolairee/KU_data/esnuelML/ESNUEL_ML/desc_calcs/6c2e108bc093395f4dd14ae48ce3c5c7/6c2e108bc093395f4dd14ae48ce3c5c7_1.xyz
          omp threads                :                     1

   ID    Z sym.   atoms
    1    6 C      1-7, 9-11, 13-17, 19-21
    2    8 O      8, 12, 18
    3    1 H      22-44

           -------------------------------------------------
          |                 G F N 1 - x T B                 |
           -------------------------------------------------

        Reference                      10.1021/acs.jctc.7b00118
      * Hamiltonian:
        H0-scaling (s, p, d)           1.850000    2.250000    2.000000
        zeta-weighting                 0.000000
      * Dispersion:
        s8                             2.400000
        a1                             0.630000
        a2                             5.000000
        s9                             0.000000
      * Repulsion:
        kExp                           1.500000
        rExp                           1.000000
      * Coulomb:
        alpha                          2.000000
        third order                    atomic
        anisotropic                    false
      * Halogen bond correction:
        rad-scale                      1.300000
        damping                        0.440000


          ...................................................
          :                      SETUP                      :
          :.................................................:
          :  # basis functions                 130          :
          :  # atomic orbitals                 130          :
          :  # shells                           88          :
          :  # electrons                       114          :
          :  # halogen bonds                     0          :
          :  max. iterations                   250          :
          :  Hamiltonian                  GFN1-xTB          :
          :  restarted?                      false          :
          :  GBSA solvation                  false          :
          :  PC potential                    false          :
          :  electronic temp.          300.0000000     K    :
          :  accuracy                    1.0000000          :
          :  -> integral cutoff          0.2500000E+02      :
          :  -> integral neglect         0.1000000E-07      :
          :  -> SCF convergence          0.1000000E-05 Eh   :
          :  -> wf. convergence          0.2000000E-04 e    :
          :  Broyden damping             0.4000000          :
          ...................................................

 iter      E             dE          RMSdq      gap      omega  full diag
   1    -65.3787008 -0.653787E+02  0.893E+00    3.26       0.0  T
   2    -65.5490365 -0.170336E+00  0.535E+00    1.59       1.0  T
   3    -64.5958953  0.953141E+00  0.273E+00    0.33       1.0  T
   4    -65.5179740 -0.922079E+00  0.896E-01    3.05       1.0  T
   5    -65.5390002 -0.210262E-01  0.565E-01    2.68       1.0  T
   6    -65.5478019 -0.880175E-02  0.416E-01    2.42       1.0  T
   7    -65.5523019 -0.450001E-02  0.310E-01    2.12       1.0  T
   8    -65.5542429 -0.194096E-02  0.242E-01    1.67       1.0  T
   9    -65.5569709 -0.272804E-02  0.630E-02    0.48       1.0  T
  10    -65.5567900  0.180914E-03  0.547E-02    0.18       1.0  T
  11    -65.5569287 -0.138658E-03  0.651E-02    0.52       1.0  T
  12    -65.5570927 -0.163961E-03  0.389E-02    0.36       1.0  T
  13    -65.5572317 -0.139043E-03  0.392E-04    0.24      38.5  T
  14    -65.5572294  0.224887E-05  0.419E-03    0.24       3.6  T
  15    -65.5572303 -0.810127E-06  0.345E-03    0.25       4.4  T
  16    -65.5572313 -0.108561E-05  0.170E-03    0.24       8.9  T
  17    -65.5572317 -0.338687E-06  0.414E-04    0.24      36.4  T
  18    -65.5572317 -0.178955E-07  0.165E-04    0.24      91.4  T
  19    -65.5572317 -0.322653E-08  0.370E-05    0.24     407.2  T

   *** convergence criteria satisfied after 19 iterations ***

         #    Occupation            Energy/Eh            Energy/eV
      -------------------------------------------------------------
         1        2.0000           -0.7331891             -19.9511
       ...           ...                  ...                  ...
        51        2.0000           -0.3226446              -8.7796
        52        2.0000           -0.3143458              -8.5538
        53        2.0000           -0.3069399              -8.3523
        54        2.0000           -0.3059174              -8.3244
        55        2.0000           -0.2940449              -8.0014
        56        2.0000           -0.2161598              -5.8820
        57        1.9821           -0.1878726              -5.1123 (HOMO)
        58        0.0179           -0.1789286              -4.8689 (LUMO)
        59                         -0.1644132              -4.4739
        60                         -0.1171542              -3.1879
        61                         -0.0845667              -2.3012
        62                         -0.0509455              -1.3863
       ...                                ...                  ...
       130                          0.8512510              23.1637
      -------------------------------------------------------------
                  HL-Gap            0.0089440 Eh            0.2434 eV
             Fermi-level           -0.1834006 Eh           -4.9906 eV

 localization/xTB-IFF output generation
 averaging CT terms over            1  occ. levels
 averaging CT terms over            1  virt. levels
 dipole moment from electron density (au)
     X       Y       Z   
   3.5305   2.4887  -1.7729  total (Debye):   11.868
cpu  time for init local    0.01 s
wall time for init local    0.01 s
 doing rotations ...
 initialization of trafo matrix to unity

 converged in     37 iterations, threshold :   0.99529043D-06
 doing transformations ...
 lmo centers(Z=2) and atoms on file <lmocent.coord>
 LMO Fii/eV  ncent    charge center   contributions...
    1 sigma -17.06   1.84  13.77904   2.15767   0.63598   18O :  0.64   19C :  0.37
    2 sigma -16.96   1.82  12.49724   1.07140   0.93388   18O :  0.65   17C :  0.35
    3 sigma -15.08   1.87   2.30037  -0.94658  -0.26367   12O :  0.62   13C :  0.38
    4 sigma -14.74   1.80   0.80459  -0.89760  -1.15710   12O :  0.66   11C :  0.35
    5 LP    -14.32   1.07  14.00638  -0.01060   0.03712   18O :  0.97
    6 LP    -14.27   1.08  13.71484   1.02217   2.58288   18O :  0.96
    7 sigma -13.74   1.98  15.65962   3.63449   0.23676   19C :  0.51   42H :  0.49
    8 sigma -13.74   1.96  13.76146   4.60082   0.88455   19C :  0.51   41H :  0.50
    9 sigma -13.72   1.97  13.97364   3.76401  -1.21106   19C :  0.51   40H :  0.49
   10 sigma -13.72   1.98  10.62669  -0.46080   1.34108   17C :  0.52   20C :  0.49
   11 sigma -13.37   1.99   7.84353   2.02917   0.07139   16C :  0.51   15C :  0.49
   12 sigma -13.27   1.99   6.74349  -1.59295   1.36623   21C :  0.51   14C :  0.50
   13 sigma -13.07   2.01   9.40623   3.63557  -0.38793   16C :  0.51   39H :  0.49
   14 sigma -12.95   1.99  11.18998  -2.53215   2.22645   20C :  0.51   43H :  0.49
   15 sigma -12.86   2.00   7.35853  -3.63128   2.26171   21C :  0.51   44H :  0.49
   16 sigma -12.73   1.95   4.46253  -1.11939   0.95019   14C :  0.52   13C :  0.49
   17 sigma -12.61   2.00   5.61624   2.53189  -0.34812   15C :  0.52   38H :  0.48
   18 sigma -12.23   2.01   2.56516  -0.98001   2.15444   13C :  0.51   36H :  0.49
   19 sigma -12.19   1.99   2.98588  -2.87311   1.04333   13C :  0.51   37H :  0.49
   20 delpi -12.15   2.36   9.81599   1.27873   0.04281   16C :  0.48   17C :  0.43
   21 delpi -12.14   2.37   9.71353   1.63285   0.95967   16C :  0.49   17C :  0.43
   22 LP    -12.09   1.03   2.56617  -1.19533  -2.53238   12O :  0.98
   23 LP    -12.08   1.03   1.79063   1.17316  -1.05615   12O :  0.98
   24 delpi -12.00   2.29   9.03927  -1.97512   1.24551   20C :  0.49   21C :  0.45
   25 delpi -11.99   2.30   8.94312  -1.61117   2.15307   20C :  0.49   21C :  0.45
   26 sigma -11.83   1.98  -7.70298   6.38299  -1.19359   22H :  0.50    1C :  0.50
   27 delpi -11.79   2.38   6.47069   0.15301   0.13494   14C :  0.47   15C :  0.45
   28 sigma -11.70   2.00  -6.85615   5.15553  -3.01453    1C :  0.50   23H :  0.50
   29 delpi -11.69   2.42   6.40182   0.50314   1.03524   14C :  0.46   15C :  0.45
   30 sigma -11.47   2.01  -8.16077   3.09434   0.86468    2C :  0.50   24H :  0.49
   31 sigma -11.44   1.98 -10.34252  -0.34802  -2.49402   26H :  0.51    4C :  0.50
   32 sigma -11.36   1.95  -7.33548   1.74747  -0.87808    2C :  0.53    3C :  0.48
   33 sigma -11.36   1.99  -1.18450  -1.23747  -2.55695   11C :  0.50   35H :  0.50
   34 sigma -11.32   1.99 -11.62325  -2.92792   0.29045   28H :  0.51    5C :  0.49
   35 sigma -11.31   2.00  -9.07794  -2.17265  -2.70472   27H :  0.50    4C :  0.50
   36 sigma -11.28   1.96  -9.92388  -1.65415  -0.64313    4C :  0.51    5C :  0.50
   37 sigma -11.21   1.99  -0.82013  -2.77019  -0.98209   11C :  0.51   34H :  0.49
   38 sigma -11.21   1.98 -10.84265  -1.16336   1.42145   29H :  0.50    5C :  0.50
   39 sigma -11.15   2.01  -8.20597  -0.33298  -1.57593    4C :  0.51    3C :  0.48
   40 sigma -10.98   1.95  -1.62152  -0.69460  -0.38682   11C :  0.53   10C :  0.48
   41 sigma -10.96   2.01  -6.33102   0.53543  -2.56996   25H :  0.50    3C :  0.49
   42 sigma -10.90   1.94  -9.52899  -3.01035   1.20246    5C :  0.53    6C :  0.48
   43 pi    -10.74   1.73  -4.81278  -4.00623   2.62432    8O :  0.70    7C :  0.31
   44 sigma -10.64   2.00  -2.47735   1.42545   0.09450   33H :  0.50   10C :  0.50
   45 pi    -10.63   1.73  -5.01848  -3.44270   3.31115    8O :  0.70    7C :  0.30
   46 sigma -10.60   2.02  -8.52665  -5.10864   1.23729   30H :  0.50    6C :  0.50
   47 pi    -10.60   1.99  -7.00132   4.17981  -0.91322    1C :  0.52    2C :  0.48
   48 sigma -10.59   2.02  -6.16912  -0.17088  -0.46556    3C :  0.54    9C :  0.45
   49 pi    -10.57   1.99  -8.00969   4.07875  -1.31228    1C :  0.53    2C :  0.47
   50 sigma -10.55   2.01  -9.00062  -4.11378   3.16895    6C :  0.50   31H :  0.50
   51 sigma -10.52   2.01  -2.01426   0.07799   1.77028   10C :  0.51   32H :  0.49
   52 sigma -10.43   1.98  -3.79465  -0.39077   0.45931   10C :  0.53    9C :  0.47
   53 sigma -10.07   1.95  -7.31365  -3.36622   1.88917    6C :  0.56    7C :  0.44
   54 LP     -8.98   1.04  -2.83995  -3.76909   3.65058    8O :  0.98
   55 LP     -8.83   1.06  -5.47577  -5.42109   4.22206    8O :  0.97
   56 pi     -8.56   2.01  -5.33510  -1.97518   0.62955    9C :  0.60    7C :  0.37
   57 pi     -8.55   1.99  -5.57114  -1.31961   1.43376    9C :  0.60    7C :  0.38
 starting deloc pi regularization ...
 thr    2.2000000000000002      # pi deloc LMO           7
 files:
 coordprot.0/xtbscreen.xyz/xtblmoinfo/lmocent.coord
 with protonation site input, xtbdock and
 LMO center info written


 SCC (total)                   0 d,  0 h,  0 min,  0.081 sec
 SCC setup                      ...        0 min,  0.000 sec (  0.247%)
 Dispersion                     ...        0 min,  0.000 sec (  0.296%)
 classical contributions        ...        0 min,  0.000 sec (  0.134%)
 integral evaluation            ...        0 min,  0.008 sec (  9.828%)
 iterations                     ...        0 min,  0.031 sec ( 38.130%)
 molecular gradient             ...        0 min,  0.025 sec ( 30.930%)
 printout                       ...        0 min,  0.016 sec ( 20.427%)

         :::::::::::::::::::::::::::::::::::::::::::::::::::::
         ::                     SUMMARY                     ::
         :::::::::::::::::::::::::::::::::::::::::::::::::::::
         :: total energy             -64.771607040542 Eh    ::
         :: gradient norm              0.062892229485 Eh/a0 ::
         :: HOMO-LUMO gap              0.243378764883 eV    ::
         ::.................................................::
         :: SCC energy               -65.557231700551 Eh    ::
         :: -> electrostatic           0.232419241768 Eh    ::
         :: repulsion energy           0.810332144731 Eh    ::
         :: dispersion energy         -0.024707484723 Eh    ::
         :: halogen bond corr.         0.000000000000 Eh    ::
         :: add. restraining           0.000000000000 Eh    ::
         :: total charge              -1.000000000000 e     ::
         :::::::::::::::::::::::::::::::::::::::::::::::::::::

           -------------------------------------------------
          |                Property Printout                |
           -------------------------------------------------

    * Orbital Energies and Occupations

         #    Occupation            Energy/Eh            Energy/eV
      -------------------------------------------------------------
         1        2.0000           -0.7331891             -19.9511
       ...           ...                  ...                  ...
        45        2.0000           -0.3530197              -9.6062
        46        2.0000           -0.3469326              -9.4405
        47        2.0000           -0.3385950              -9.2136
        48        2.0000           -0.3341835              -9.0936
        49        2.0000           -0.3319243              -9.0321
        50        2.0000           -0.3265159              -8.8850
        51        2.0000           -0.3226446              -8.7796
        52        2.0000           -0.3143458              -8.5538
        53        2.0000           -0.3069399              -8.3523
        54        2.0000           -0.3059174              -8.3244
        55        2.0000           -0.2940449              -8.0014
        56        2.0000           -0.2161598              -5.8820
        57        1.9821           -0.1878726              -5.1123 (HOMO)
        58        0.0179           -0.1789286              -4.8689 (LUMO)
        59                         -0.1644132              -4.4739
        60                         -0.1171542              -3.1879
        61                         -0.0845667              -2.3012
        62                         -0.0509455              -1.3863
        63                         -0.0315715              -0.8591
        64                         -0.0205284              -0.5586
        65                         -0.0195799              -0.5328
        66                         -0.0102584              -0.2791
        67                         -0.0076316              -0.2077
        68                          0.0013542               0.0368
       ...                                ...                  ...
       130                          0.8512510              23.1637
      -------------------------------------------------------------
                  HL-Gap            0.0089440 Eh            0.2434 eV
             Fermi-level           -0.1834006 Eh           -4.9906 eV

  Mulliken/CM5 charges         n(s)   n(p)   n(d)
     1C    -0.12254 -0.22488   1.038  3.085  0.000
     2C    -0.01274 -0.07432   1.084  2.928  0.000
     3C     0.00967 -0.04972   1.047  2.943  0.000
     4C    -0.04289 -0.14842   1.028  3.015  0.000
     5C    -0.04723 -0.15582   1.024  3.023  0.000
     6C    -0.07614 -0.17473   1.042  3.034  0.000
     7C     0.31062  0.33324   1.009  2.681  0.000
     8O    -0.69791 -0.74499   1.749  4.949  0.000
     9C    -0.24770 -0.25966   1.051  3.196  0.000
    10C    -0.03038 -0.13069   1.023  3.008  0.000
    11C     0.19038  0.10809   1.002  2.807  0.000
    12O    -0.48893 -0.58608   1.705  4.784  0.000
    13C     0.19744  0.12030   0.993  2.810  0.000
    14C    -0.00983 -0.02228   1.091  2.919  0.000
    15C    -0.01960 -0.07136   1.062  2.958  0.000
    16C    -0.10367 -0.15553   1.056  3.048  0.000
    17C     0.24381  0.25944   1.016  2.740  0.000
    18O    -0.43070 -0.51868   1.685  4.745  0.000
    19C     0.17152  0.05028   0.969  2.859  0.000
    20C    -0.07614 -0.12583   1.054  3.022  0.000
    21C    -0.04630 -0.09925   1.063  2.983  0.000
    22H     0.00266  0.05511   0.997  0.000  0.000
    23H     0.01054  0.06359   0.989  0.000  0.000
    24H     0.01256  0.06926   0.987  0.000  0.000
    25H    -0.00114  0.05914   1.001  0.000  0.000
    26H    -0.00560  0.04950   1.006  0.000  0.000
    27H     0.00879  0.06431   0.991  0.000  0.000
    28H    -0.00890  0.04533   1.009  0.000  0.000
    29H     0.00477  0.06058   0.995  0.000  0.000
    30H     0.00568  0.06278   0.994  0.000  0.000
    31H     0.01057  0.06800   0.989  0.000  0.000
    32H     0.01989  0.07981   0.980  0.000  0.000
    33H    -0.00172  0.05657   1.002  0.000  0.000
    34H     0.01798  0.08214   0.982  0.000  0.000
    35H     0.00634  0.06983   0.994  0.000  0.000
    36H     0.03106  0.09486   0.969  0.000  0.000
    37H     0.02099  0.08496   0.979  0.000  0.000
    38H     0.04464  0.10364   0.955  0.000  0.000
    39H     0.02262  0.08147   0.977  0.000  0.000
    40H     0.02218  0.08133   0.978  0.000  0.000
    41H     0.02159  0.08074   0.978  0.000  0.000
    42H     0.02529  0.08434   0.975  0.000  0.000
    43H     0.03205  0.09099   0.968  0.000  0.000
    44H     0.02644  0.08261   0.974  0.000  0.000

Wiberg/Mayer (AO) data.
largest (>0.10) Wiberg bond orders for each atom

 ---------------------------------------------------------------------------
     #   Z sym  total        # sym  WBO       # sym  WBO       # sym  WBO
 ---------------------------------------------------------------------------
     1   6 C    3.983 --     2 C    1.947    22 H    0.981    23 H    0.981
     2   6 C    3.986 --     1 C    1.947     3 C    1.000    24 H    0.972
     3   6 C    3.986 --     2 C    1.000     9 C    0.975     4 C    0.975
                            25 H    0.967
     4   6 C    3.997 --     5 C    1.007    26 H    0.980    27 H    0.978
                             3 C    0.975
     5   6 C    3.996 --     4 C    1.007     6 C    1.002    28 H    0.981
                            29 H    0.979
     6   6 C    3.979 --     5 C    1.002    31 H    0.973    30 H    0.971
                             7 C    0.944
     7   6 C    3.950 --     9 C    1.517     8 O    1.412     6 C    0.944
     8   8 O    1.740 --     7 C    1.412     9 C    0.184
     9   6 C    3.803 --     7 C    1.517    10 C    0.996     3 C    0.975
                             8 O    0.184
    10   6 C    3.991 --     9 C    0.996    11 C    0.985    33 H    0.978
                            32 H    0.969
    11   6 C    3.892 --    10 C    0.985    35 H    0.975    34 H    0.971
                            12 O    0.911
    12   8 O    1.985 --    13 C    0.955    11 C    0.911
    13   6 C    3.936 --    14 C    0.999    37 H    0.968    36 H    0.956
                            12 O    0.955
    14   6 C    3.987 --    15 C    1.416    21 C    1.410    13 C    0.999
    15   6 C    3.984 --    16 C    1.434    14 C    1.416    38 H    0.971
                            20 C    0.109
    16   6 C    3.979 --    15 C    1.434    17 C    1.382    39 H    0.971
                            21 C    0.102
    17   6 C    3.901 --    16 C    1.382    20 C    1.370    18 O    1.004
    18   8 O    2.119 --    17 C    1.004    19 C    0.945
    19   6 C    3.919 --    42 H    0.985    41 H    0.981    40 H    0.981
                            18 O    0.945
    20   6 C    3.981 --    21 C    1.450    17 C    1.370    43 H    0.974
                            15 C    0.109
    21   6 C    3.985 --    20 C    1.450    14 C    1.410    44 H    0.974
                            16 C    0.102
    22   1 H    1.009 --     1 C    0.981
    23   1 H    1.009 --     1 C    0.981
    24   1 H    1.013 --     2 C    0.972
    25   1 H    1.013 --     3 C    0.967
    26   1 H    1.013 --     4 C    0.980
    27   1 H    1.010 --     4 C    0.978
    28   1 H    1.012 --     5 C    0.981
    29   1 H    1.011 --     5 C    0.979
    30   1 H    1.015 --     6 C    0.971
    31   1 H    1.020 --     6 C    0.973
    32   1 H    1.016 --    10 C    0.969
    33   1 H    1.013 --    10 C    0.978
    34   1 H    1.016 --    11 C    0.971
    35   1 H    1.025 --    11 C    0.975
    36   1 H    1.020 --    13 C    0.956
    37   1 H    1.014 --    13 C    0.968
    38   1 H    1.008 --    15 C    0.971
    39   1 H    1.003 --    16 C    0.971
    40   1 H    1.011 --    19 C    0.981
    41   1 H    1.011 --    19 C    0.981
    42   1 H    1.018 --    19 C    0.985
    43   1 H    1.003 --    20 C    0.974
    44   1 H    1.003 --    21 C    0.974
 ---------------------------------------------------------------------------

Topologies differ in total number of bonds
Writing topology from bond orders to xtbtopo.mol

 dipole moment from electron density (au)
     X       Y       Z   
   3.3809   2.4893  -1.7898  total (Debye):   11.601


           -------------------------------------------------
          | TOTAL ENERGY              -64.771607040542 Eh   |
          | GRADIENT NORM               0.062892229485 Eh/α |
          | HOMO-LUMO GAP               0.243378764883 eV   |
           -------------------------------------------------

------------------------------------------------------------------------
 * finished run on 2024/06/12 at 11:41:00.436     
------------------------------------------------------------------------
 total:
 * wall-time:     0 d,  0 h,  0 min,  0.092 sec
 *  cpu-time:     0 d,  0 h,  0 min,  0.091 sec
 * ratio c/w:     0.997 speedup
 SCF:
 * wall-time:     0 d,  0 h,  0 min,  0.081 sec
 *  cpu-time:     0 d,  0 h,  0 min,  0.080 sec
 * ratio c/w:     0.997 speedup

