      -----------------------------------------------------------      
     |                   =====================                   |     
     |                           x T B                           |     
     |                   =====================                   |     
     |                         S. Grimme                         |     
     |          Mulliken Center for Theoretical Chemistry        |     
     |                    University of Bonn                     |     
      -----------------------------------------------------------      

   * xtb version 6.6.0 (conda-forge) compiled by 'runner@Mac-1676020903829.local' on 2023-02-10

   xtb is free software: you can redistribute it and/or modify it under
   the terms of the GNU Lesser General Public License as published by
   the Free Software Foundation, either version 3 of the License, or
   (at your option) any later version.
   
   xtb is distributed in the hope that it will be useful,
   but WITHOUT ANY WARRANTY; without even the implied warranty of
   MERCHANTABILITY or FITNESS FOR A PARTICULAR PURPOSE.  See the
   GNU Lesser General Public License for more details.
   
   Cite this work as:
   * C. Bannwarth, E. Caldeweyher, S. Ehlert, A. Hansen, P. Pracht,
     J. Seibert, S. Spicher, S. Grimme, WIREs Comput. Mol. Sci., 2020, 11,
     e01493. DOI: 10.1002/wcms.1493
   
   for GFN2-xTB:
   * C. Bannwarth, S. Ehlert and S. Grimme., J. Chem. Theory Comput., 2019,
     15, 1652-1671. DOI: 10.1021/acs.jctc.8b01176
   for GFN1-xTB:
   * S. Grimme, C. Bannwarth, P. Shushkov, J. Chem. Theory Comput., 2017,
     13, 1989-2009. DOI: 10.1021/acs.jctc.7b00118
   for GFN0-xTB:
   * P. Pracht, E. Caldeweyher, S. Ehlert, S. Grimme, ChemRxiv, 2019, preprint.
     DOI: 10.26434/chemrxiv.8326202.v1
   for GFN-FF:
   * S. Spicher and S. Grimme, Angew. Chem. Int. Ed., 2020, 59, 15665-15673.
     DOI: 10.1002/anie.202004239
   
   for ALPB and GBSA implicit solvation:
   * S. Ehlert, M. Stahn, S. Spicher, S. Grimme, J. Chem. Theory Comput.,
     2021, 17, 4250-4261. DOI: 10.1021/acs.jctc.1c00471
   
   for DFT-D4:
   * E. Caldeweyher, C. Bannwarth and S. Grimme, J. Chem. Phys., 2017,
     147, 034112. DOI: 10.1063/1.4993215
   * E. Caldeweyher, S. Ehlert, A. Hansen, H. Neugebauer, S. Spicher,
     C. Bannwarth and S. Grimme, J. Chem. Phys., 2019, 150, 154122.
     DOI: 10.1063/1.5090222
   * E. Caldeweyher, J.-M. Mewes, S. Ehlert and S. Grimme, Phys. Chem. Chem. Phys.
     2020, 22, 8499-8512. DOI: 10.1039/D0CP00502A
   
   for sTDA-xTB:
   * S. Grimme and C. Bannwarth, J. Chem. Phys., 2016, 145, 054103.
     DOI: 10.1063/1.4959605
   
   in the mass-spec context:
   * V. Asgeirsson, C. Bauer and S. Grimme, Chem. Sci., 2017, 8, 4879.
     DOI: 10.1039/c7sc00601b
   * J. Koopman and S. Grimme, ACS Omega 2019, 4, 12, 15120-15133.
     DOI: 10.1021/acsomega.9b02011
   
   for metadynamics refer to:
   * S. Grimme, J. Chem. Theory Comput., 2019, 155, 2847-2862
     DOI: 10.1021/acs.jctc.9b00143
   
   for SPH calculations refer to:
   * S. Spicher and S. Grimme, J. Chem. Theory Comput., 2021, 17, 1701-1714
     DOI: 10.1021/acs.jctc.0c01306
   
   with help from (in alphabetical order)
   P. Atkinson, C. Bannwarth, F. Bohle, G. Brandenburg, E. Caldeweyher
   M. Checinski, S. Dohm, S. Ehlert, S. Ehrlich, I. Gerasimov, C. Hölzer
   A. Katbashev, J. Koopman, C. Lavigne, S. Lehtola, F. März, M. Müller,
   F. Musil, H. Neugebauer, J. Pisarek, C. Plett, P. Pracht, F. Pultar,
   J. Seibert, P. Shushkov, S. Spicher, M. Stahn, M. Steiner, T. Strunk,
   J. Stückrath, T. Rose, and J. Unsleber
   
 * started run on 2024/03/27 at 10:53:35.688     

           -------------------------------------------------
          |                Calculation Setup                |
           -------------------------------------------------

          program call               : /Users/nicolairee/opt/miniforge3/envs/alfabet/bin/xtb --gfn 1 /Users/nicolairee/KU_data/esnuelML/ESNUEL_ML/calculations/4e6ff359c6d225d215e4c56eeff2b94a/4e6ff359c6d225d215e4c56eeff2b94a.xyz --lmo --chrg 0 --uhf 0
          coordinate file            : /Users/nicolairee/KU_data/esnuelML/ESNUEL_ML/calculations/4e6ff359c6d225d215e4c56eeff2b94a/4e6ff359c6d225d215e4c56eeff2b94a.xyz
          omp threads                :                     1

   ID    Z sym.   atoms
    1    6 C      1, 2, 4, 6, 7, 11, 12, 15-20, 22-28
    2    8 O      3, 5, 13, 14, 21
    3    7 N      8, 10
    4   16 S      9
    5    1 H      29-58

           -------------------------------------------------
          |                 G F N 1 - x T B                 |
           -------------------------------------------------

        Reference                      10.1021/acs.jctc.7b00118
      * Hamiltonian:
        H0-scaling (s, p, d)           1.850000    2.250000    2.000000
        zeta-weighting                 0.000000
      * Dispersion:
        s8                             2.400000
        a1                             0.630000
        a2                             5.000000
        s9                             0.000000
      * Repulsion:
        kExp                           1.500000
        rExp                           1.000000
      * Coulomb:
        alpha                          2.000000
        third order                    atomic
        anisotropic                    false
      * Halogen bond correction:
        rad-scale                      1.300000
        damping                        0.440000


          ...................................................
          :                      SETUP                      :
          :.................................................:
          :  # basis functions                 178          :
          :  # atomic orbitals                 177          :
          :  # shells                          117          :
          :  # electrons                       156          :
          :  # halogen bonds                     0          :
          :  max. iterations                   250          :
          :  Hamiltonian                  GFN1-xTB          :
          :  restarted?                      false          :
          :  GBSA solvation                  false          :
          :  PC potential                    false          :
          :  electronic temp.          300.0000000     K    :
          :  accuracy                    1.0000000          :
          :  -> integral cutoff          0.2500000E+02      :
          :  -> integral neglect         0.1000000E-07      :
          :  -> SCF convergence          0.1000000E-05 Eh   :
          :  -> wf. convergence          0.2000000E-04 e    :
          :  Broyden damping             0.4000000          :
          ...................................................

 iter      E             dE          RMSdq      gap      omega  full diag
   1    -92.6497375 -0.926497E+02  0.836E+00    4.11       0.0  T
   2    -93.0012377 -0.351500E+00  0.503E+00    3.65       1.0  T
   3    -92.9680024  0.332354E-01  0.155E+00    3.86       1.0  T
   4    -93.0268969 -0.588945E-01  0.191E-01    3.74       1.0  T
   5    -93.0286148 -0.171797E-02  0.528E-02    3.77       1.0  T
   6    -93.0287569 -0.142099E-03  0.120E-02    3.80       1.1  T
   7    -93.0287654 -0.842705E-05  0.227E-03    3.80       5.8  T
   8    -93.0287655 -0.173792E-06  0.825E-04    3.80      15.9  T
   9    -93.0287656 -0.943213E-08  0.257E-04    3.80      51.1  T
  10    -93.0287656 -0.877819E-09  0.858E-05    3.80     153.0  T
  11    -93.0287656 -0.111157E-09  0.321E-05    3.80     408.8  T

   *** convergence criteria satisfied after 11 iterations ***

         #    Occupation            Energy/Eh            Energy/eV
      -------------------------------------------------------------
         1        2.0000           -0.9019501             -24.5433
       ...           ...                  ...                  ...
        72        2.0000           -0.4654797             -12.6663
        73        2.0000           -0.4626855             -12.5903
        74        2.0000           -0.4304742             -11.7138
        75        2.0000           -0.4243054             -11.5459
        76        2.0000           -0.4108427             -11.1796
        77        2.0000           -0.4078163             -11.0972
        78        2.0000           -0.4025571             -10.9541 (HOMO)
        79                         -0.2629222              -7.1545 (LUMO)
        80                         -0.2592312              -7.0540
        81                         -0.2493714              -6.7857
        82                         -0.2399258              -6.5287
        83                         -0.2001755              -5.4471
       ...                                ...                  ...
       177                          0.6608396              17.9824
      -------------------------------------------------------------
                  HL-Gap            0.1396349 Eh            3.7997 eV
             Fermi-level           -0.3327397 Eh           -9.0543 eV

 localization/xTB-IFF output generation
 averaging CT terms over            3  occ. levels
 averaging CT terms over            2  virt. levels
 dipole moment from electron density (au)
     X       Y       Z   
   0.8387  -0.1244  -0.7463  total (Debye):    2.871
cpu  time for init local    0.02 s
wall time for init local    0.02 s
 doing rotations ...
 initialization of trafo matrix to unity

 converged in     40 iterations, threshold :   0.99995153D-06
 doing transformations ...
 lmo centers(Z=2) and atoms on file <lmocent.coord>
 LMO Fii/eV  ncent    charge center   contributions...
    1 sigma -19.47   1.80   6.05516   2.46996   1.99701    3O :  0.66    4C :  0.34
    2 sigma -19.34   1.78   6.66727   3.83973   1.31088    3O :  0.67    2C :  0.34
    3 sigma -19.33   1.85  -1.95460  -1.00047  -0.00020   14O :  0.65   12C :  0.35
    4 sigma -19.21   1.82  -1.42773   0.45544  -0.56205   14O :  0.66   15C :  0.35
    5 sigma -18.78   1.87  -2.75924   0.91771  -4.64897   21O :  0.63   20C :  0.37
    6 sigma -18.45   1.82  -3.33943   0.58122  -6.17490   21O :  0.65   22C :  0.35
    7 pi    -17.64   1.83   4.71520   2.54045   4.40477    5O :  0.65    4C :  0.34
    8 LP    -17.63   1.00   7.70268   1.79284   0.42926    3O :  1.00
    9 pi    -17.62   1.83   3.95266   2.74596   3.85655    5O :  0.65    4C :  0.34
   10 sigma -17.48   1.98  -1.18357  -4.78700   1.26175   10N :  0.57    9S :  0.42
   11 sigma -17.40   1.90  -3.29445  -5.16016   1.54145   10N :  0.60   11C :  0.40
   12 sigma -17.31   2.00   1.19192  -4.92460   2.73653    8N :  0.53    9S :  0.47
   13 sigma -17.27   1.93  -2.72695  -3.48576   0.72219   10N :  0.60   12C :  0.39
   14 pi    -17.08   1.83  -4.65191  -1.71895  -0.13239   13O :  0.66   12C :  0.34
   15 pi    -17.05   1.83  -4.62942  -1.38616   0.76722   13O :  0.66   12C :  0.34
   16 sigma -16.94   1.89   1.65085  -5.29379   4.88592    8N :  0.60   26C :  0.42
   17 sigma -16.79   1.93   2.21928  -3.48680   4.09585    8N :  0.59    7C :  0.42
   18 LP    -16.64   1.10  -0.25415  -1.23664  -1.19601   14O :  0.96
   19 LP    -16.46   1.23   4.97861   2.63471   0.87251    3O :  0.90    4C :  0.09
   20 LP    -16.44   1.11  -0.68973  -0.31995   1.34824   14O :  0.95
   21 LP    -16.40   1.04   1.65505  -3.69823  -0.50526    9S :  0.98
   22 LP    -16.37   1.04   0.18762  -8.02213   1.45922    9S :  0.98
   23 sigma -16.25   1.99  -2.18964   1.93107  -2.44800   20C :  0.51   15C :  0.49
   24 LP    -16.15   1.06  -3.71241  -1.05769  -4.59797   21O :  0.97
   25 sigma -16.00   1.98   4.72411   0.46736   2.79029    4C :  0.52    6C :  0.48
   26 sigma -15.90   1.98  -3.04901   5.56329  -4.03232   19C :  0.51   18C :  0.49
   27 LP    -15.89   1.11  -1.32294   0.04300  -5.60604   21O :  0.95
   28 LP    -15.69   1.06   3.00412   2.16493   5.80534    5O :  0.97
   29 LP    -15.64   1.06   4.42105   4.72727   4.78890    5O :  0.97
   30 sigma -15.57   2.00  -1.79309   5.24638  -0.22588   16C :  0.50   17C :  0.50
   31 sigma -15.54   1.94   7.76301   5.88003   0.33664    2C :  0.52    1C :  0.50
   32 sigma -15.48   1.87   0.40167  -5.51828   7.04210   28C :  0.52   26C :  0.51
   33 sigma -15.47   1.99  -3.52827   4.37127  -6.05208   25C :  0.50   19C :  0.50
   34 sigma -15.41   1.97   5.74446   6.14626   1.36526    2C :  0.52   32H :  0.49
   35 sigma -15.37   2.04   5.70975  -1.51143   2.66273    6C :  0.51   35H :  0.48
   36 sigma -15.34   1.97   3.58613  -1.46983   3.43986    6C :  0.52    7C :  0.49
   37 sigma -15.33   2.00   7.55538   5.73980   2.60420    2C :  0.52   33H :  0.48
   38 sigma -15.33   1.96  -4.00681   2.71528  -7.46976   25C :  0.51   22C :  0.50
   39 sigma -15.31   2.01  -5.01611   4.78299  -7.66855   25C :  0.51   50H :  0.49
   40 sigma -15.29   2.02  -2.86313   4.59694  -8.14515   25C :  0.51   51H :  0.48
   41 sigma -15.28   1.93  -5.49732  -5.62183   2.30865   11C :  0.53   39H :  0.48
   42 sigma -15.27   1.96  -3.50833   0.71967  -8.69318   22C :  0.51   24C :  0.50
   43 sigma -15.25   2.03   4.10486  -1.01748   1.29693    6C :  0.53   34H :  0.47
   44 sigma -15.23   1.99  -3.18749   7.85879  -3.80543   18C :  0.51   43H :  0.49
   45 sigma -15.22   1.98  -3.96627  -7.16209   2.67636   11C :  0.52   38H :  0.49
   46 sigma -15.22   2.00   8.85459   7.63194  -0.68818    1C :  0.51   29H :  0.49
   47 sigma -15.20   1.96  -5.51433   0.84102  -7.44865   22C :  0.51   23C :  0.50
   48 sigma -15.19   1.95   2.59686  -6.43927   6.90883   27C :  0.51   26C :  0.50
   49 sigma -15.17   1.96  -4.73397  -6.79506   0.61006   11C :  0.52   40H :  0.49
   50 sigma -15.14   1.97   7.99963   6.02029  -1.94069    1C :  0.52   31H :  0.49
   51 LP    -15.13   1.07  -6.51119  -2.53174   0.73033   13O :  0.97
   52 LP    -15.11   1.06  -5.67047   0.24874  -0.32261   13O :  0.97
   53 sigma -15.09   1.99   3.19461  -1.91845   5.64527    7C :  0.52   36H :  0.49
   54 sigma -15.06   1.99   9.77915   5.62163  -0.72632    1C :  0.52   30H :  0.48
   55 sigma -15.04   1.99  -3.46681   0.69005 -11.00469   24C :  0.51   49H :  0.49
   56 sigma -15.03   2.00   0.86454  -7.35983   5.78264   26C :  0.51   52H :  0.49
   57 sigma -15.01   1.98  -0.91578  -5.82230   8.91324   28C :  0.51   58H :  0.49
   58 sigma -15.00   2.01  -1.94867   7.55110   0.00044   17C :  0.51   42H :  0.49
   59 sigma -14.99   1.99   3.50483  -7.67002   8.64184   27C :  0.51   53H :  0.49
   60 sigma -14.97   1.97  -1.56062   0.49987  -9.89215   24C :  0.52   48H :  0.49
   61 sigma -14.96   1.96  -0.12093  -3.80707   8.49614   28C :  0.52   57H :  0.49
   62 sigma -14.95   2.01  -1.09053   3.97440   1.54723   16C :  0.52   41H :  0.47
   63 sigma -14.94   1.99  -7.59252   0.88704  -8.47261   23C :  0.51   46H :  0.49
   64 sigma -14.91   1.99   4.70429  -7.37334   6.81646   27C :  0.51   55H :  0.49
   65 sigma -14.91   1.99   4.35900  -5.68007   8.19900   27C :  0.51   54H :  0.49
   66 sigma -14.89   1.98  -2.97676  -1.16175  -9.89833   24C :  0.52   47H :  0.48
   67 sigma -14.86   2.00  -1.72148  -4.65257   7.23257   28C :  0.52   56H :  0.49
   68 sigma -14.85   1.99   1.50298  -1.25592   4.43523    7C :  0.52   37H :  0.48
   69 sigma -14.77   1.99  -6.97868  -0.93492  -7.37982   23C :  0.52   44H :  0.48
   70 delpi -14.74   2.33  -3.25902   3.44832  -3.81122   19C :  0.48   20C :  0.44
   71 sigma -14.73   2.00  -7.48595   0.86599  -6.26583   23C :  0.52   45H :  0.48
   72 delpi -14.70   2.26  -1.26285   3.11150  -0.82404   15C :  0.48   16C :  0.46
   73 delpi -14.61   2.37  -2.35050   3.57743  -4.07121   19C :  0.48   20C :  0.43
   74 delpi -14.32   2.37  -2.20035   3.03886  -0.51010   15C :  0.47   16C :  0.45
   75 delpi -14.23   2.33  -2.92604   6.23438  -1.84417   17C :  0.47   18C :  0.45
   76 delpi -14.10   2.37  -1.99237   6.31319  -2.13241   17C :  0.47   18C :  0.45
   77 pi    -13.85   1.44  -2.49022  -3.86578   1.62579   10N :  0.82   12C :  0.14
   78 LP    -12.82   1.21   3.08037  -5.40944   3.06913    8N :  0.91
 starting deloc pi regularization ...
 thr    2.2000000000000002      # pi deloc LMO           6
 files:
 coordprot.0/xtbscreen.xyz/xtblmoinfo/lmocent.coord
 with protonation site input, xtbdock and
 LMO center info written


 SCC (total)                   0 d,  0 h,  0 min,  0.158 sec
 SCC setup                      ...        0 min,  0.001 sec (  0.754%)
 Dispersion                     ...        0 min,  0.001 sec (  0.765%)
 classical contributions        ...        0 min,  0.001 sec (  0.412%)
 integral evaluation            ...        0 min,  0.030 sec ( 19.064%)
 iterations                     ...        0 min,  0.048 sec ( 30.227%)
 molecular gradient             ...        0 min,  0.045 sec ( 28.686%)
 printout                       ...        0 min,  0.032 sec ( 20.089%)

         :::::::::::::::::::::::::::::::::::::::::::::::::::::
         ::                     SUMMARY                     ::
         :::::::::::::::::::::::::::::::::::::::::::::::::::::
         :: total energy             -92.099745173438 Eh    ::
         :: gradient norm              0.107293763184 Eh/a0 ::
         :: HOMO-LUMO gap              3.799659548254 eV    ::
         ::.................................................::
         :: SCC energy               -93.028765554659 Eh    ::
         :: -> electrostatic           0.234247686334 Eh    ::
         :: repulsion energy           0.966986679965 Eh    ::
         :: dispersion energy         -0.037966298744 Eh    ::
         :: halogen bond corr.         0.000000000000 Eh    ::
         :: add. restraining           0.000000000000 Eh    ::
         :: total charge              -0.000000000000 e     ::
         :::::::::::::::::::::::::::::::::::::::::::::::::::::

           -------------------------------------------------
          |                Property Printout                |
           -------------------------------------------------

    * Orbital Energies and Occupations

         #    Occupation            Energy/Eh            Energy/eV
      -------------------------------------------------------------
         1        2.0000           -0.9019501             -24.5433
       ...           ...                  ...                  ...
        66        2.0000           -0.4817893             -13.1102
        67        2.0000           -0.4803892             -13.0721
        68        2.0000           -0.4754758             -12.9384
        69        2.0000           -0.4730864             -12.8733
        70        2.0000           -0.4720892             -12.8462
        71        2.0000           -0.4659248             -12.6785
        72        2.0000           -0.4654797             -12.6663
        73        2.0000           -0.4626855             -12.5903
        74        2.0000           -0.4304742             -11.7138
        75        2.0000           -0.4243054             -11.5459
        76        2.0000           -0.4108427             -11.1796
        77        2.0000           -0.4078163             -11.0972
        78        2.0000           -0.4025571             -10.9541 (HOMO)
        79                         -0.2629222              -7.1545 (LUMO)
        80                         -0.2592312              -7.0540
        81                         -0.2493714              -6.7857
        82                         -0.2399258              -6.5287
        83                         -0.2001755              -5.4471
        84                         -0.1898502              -5.1661
        85                         -0.1390700              -3.7843
        86                         -0.1356001              -3.6899
        87                         -0.1334218              -3.6306
        88                         -0.1313518              -3.5743
        89                         -0.1292053              -3.5159
       ...                                ...                  ...
       177                          0.6608396              17.9824
      -------------------------------------------------------------
                  HL-Gap            0.1396349 Eh            3.7997 eV
             Fermi-level           -0.3327397 Eh           -9.0543 eV

  Mulliken/CM5 charges         n(s)   n(p)   n(d)
     1C    -0.09533 -0.24201   1.011  3.084  0.000
     2C     0.20645  0.12407   0.993  2.800  0.000
     3O    -0.42211 -0.50570   1.699  4.723  0.000
     4C     0.57432  0.62317   0.991  2.435  0.000
     5O    -0.53376 -0.58554   1.732  4.802  0.000
     6C    -0.08368 -0.17655   1.041  3.043  0.000
     7C     0.09054  0.04396   1.012  2.898  0.000
     8N    -0.26102 -0.49214   1.470  3.791  0.000
     9S     0.08732  0.19264   1.925  3.849  0.139
    10N    -0.22583 -0.45380   1.454  3.772  0.000
    11C     0.06207 -0.02056   0.985  2.953  0.000
    12C     0.64695  0.76864   0.937  2.416  0.000
    13O    -0.55842 -0.59783   1.729  4.830  0.000
    14O    -0.41354 -0.47014   1.690  4.723  0.000
    15C     0.22486  0.24738   1.004  2.771  0.000
    16C    -0.05951 -0.10924   1.066  2.993  0.000
    17C    -0.04477 -0.09952   1.058  2.987  0.000
    18C    -0.04648 -0.09919   1.056  2.990  0.000
    19C    -0.03674 -0.04559   1.079  2.958  0.000
    20C     0.23106  0.25605   1.018  2.751  0.000
    21O    -0.42071 -0.48753   1.707  4.713  0.000
    22C     0.24530  0.23993   1.058  2.697  0.000
    23C    -0.10463 -0.24704   1.020  3.084  0.000
    24C    -0.10153 -0.24413   1.018  3.083  0.000
    25C    -0.06972 -0.16592   1.035  3.034  0.000
    26C     0.12113  0.10761   1.039  2.840  0.000
    27C    -0.10003 -0.24336   1.017  3.083  0.000
    28C    -0.10407 -0.24790   1.017  3.087  0.000
    29H     0.03391  0.08511   0.966  0.000  0.000
    30H     0.04247  0.09571   0.958  0.000  0.000
    31H     0.04253  0.09577   0.957  0.000  0.000
    32H     0.03792  0.10294   0.962  0.000  0.000
    33H     0.03819  0.10290   0.962  0.000  0.000
    34H     0.06815  0.13335   0.932  0.000  0.000
    35H     0.05738  0.11754   0.943  0.000  0.000
    36H     0.03567  0.10390   0.964  0.000  0.000
    37H     0.04362  0.11535   0.956  0.000  0.000
    38H     0.02731  0.08993   0.973  0.000  0.000
    39H     0.05271  0.11795   0.947  0.000  0.000
    40H     0.03833  0.10107   0.962  0.000  0.000
    41H     0.05763  0.11759   0.942  0.000  0.000
    42H     0.03416  0.08946   0.966  0.000  0.000
    43H     0.03272  0.08876   0.967  0.000  0.000
    44H     0.04809  0.10204   0.952  0.000  0.000
    45H     0.04954  0.10404   0.950  0.000  0.000
    46H     0.02668  0.07893   0.973  0.000  0.000
    47H     0.04574  0.09956   0.954  0.000  0.000
    48H     0.03963  0.09355   0.960  0.000  0.000
    49H     0.02816  0.08043   0.972  0.000  0.000
    50H     0.04063  0.09706   0.959  0.000  0.000
    51H     0.04199  0.09917   0.958  0.000  0.000
    52H     0.02161  0.09106   0.978  0.000  0.000
    53H     0.03178  0.08341   0.968  0.000  0.000
    54H     0.03242  0.08605   0.968  0.000  0.000
    55H     0.03532  0.08892   0.965  0.000  0.000
    56H     0.03997  0.09565   0.960  0.000  0.000
    57H     0.03589  0.08965   0.964  0.000  0.000
    58H     0.03173  0.08340   0.968  0.000  0.000

Wiberg/Mayer (AO) data.
largest (>0.10) Wiberg bond orders for each atom

 ---------------------------------------------------------------------------
     #   Z sym  total        # sym  WBO       # sym  WBO       # sym  WBO
 ---------------------------------------------------------------------------
     1   6 C    3.995 --     2 C    1.019    29 H    0.987    30 H    0.986
                            31 H    0.986
     2   6 C    3.887 --     1 C    1.019    33 H    0.973    32 H    0.973
                             3 O    0.896
     3   8 O    2.184 --     4 C    1.089     2 C    0.896     5 O    0.131
     4   6 C    3.832 --     5 O    1.702     3 O    1.089     6 C    0.982
     5   8 O    1.959 --     4 C    1.702     3 O    0.131
     6   6 C    3.993 --     7 C    1.003     4 C    0.982    35 H    0.956
                            34 H    0.953
     7   6 C    3.965 --     6 C    1.003    36 H    0.973    37 H    0.973
                             8 N    0.947
     8   7 N    3.169 --     9 S    1.124     7 C    0.947    26 C    0.938
     9  16 S    2.326 --     8 N    1.124    10 N    0.977
    10   7 N    3.344 --    12 C    1.155     9 S    0.977    11 C    0.950
                            13 O    0.129
    11   6 C    3.952 --    38 H    0.988    40 H    0.983    39 H    0.980
                            10 N    0.950
    12   6 C    3.873 --    13 O    1.625    10 N    1.155    14 O    0.997
    13   8 O    1.916 --    12 C    1.625    10 N    0.129    14 O    0.104
    14   8 O    2.180 --    12 C    0.997    15 C    0.939    13 O    0.104
    15   6 C    3.891 --    16 C    1.402    20 C    1.350    14 O    0.939
    16   6 C    3.990 --    17 C    1.441    15 C    1.402    41 H    0.970
                            19 C    0.103
    17   6 C    3.992 --    16 C    1.441    18 C    1.427    42 H    0.975
    18   6 C    3.993 --    19 C    1.434    17 C    1.427    43 H    0.974
    19   6 C    3.986 --    18 C    1.434    20 C    1.343    25 C    1.013
                            16 C    0.103
    20   6 C    3.918 --    15 C    1.350    19 C    1.343    21 O    1.031
    21   8 O    2.133 --    20 C    1.031    22 C    0.900
    22   6 C    3.896 --    24 C    0.999    23 C    0.995    25 C    0.977
                            21 O    0.900
    23   6 C    3.993 --    22 C    0.995    46 H    0.987    45 H    0.983
                            44 H    0.983
    24   6 C    3.994 --    22 C    0.999    49 H    0.987    48 H    0.984
                            47 H    0.983
    25   6 C    3.998 --    19 C    1.013    22 C    0.977    50 H    0.970
                            51 H    0.963
    26   6 C    3.962 --    27 C    1.002    28 C    1.001    52 H    0.973
                             8 N    0.938
    27   6 C    3.995 --    26 C    1.002    53 H    0.986    55 H    0.985
                            54 H    0.983
    28   6 C    3.996 --    26 C    1.001    58 H    0.985    57 H    0.985
                            56 H    0.984
    29   1 H    1.003 --     1 C    0.987
    30   1 H    1.004 --     1 C    0.986
    31   1 H    1.004 --     1 C    0.986
    32   1 H    1.013 --     2 C    0.973
    33   1 H    1.013 --     2 C    0.973
    34   1 H    1.019 --     6 C    0.953
    35   1 H    1.006 --     6 C    0.956
    36   1 H    1.013 --     7 C    0.973
    37   1 H    1.014 --     7 C    0.973
    38   1 H    1.018 --    11 C    0.988
    39   1 H    1.012 --    11 C    0.980
    40   1 H    1.006 --    11 C    0.983
    41   1 H    1.003 --    16 C    0.970
    42   1 H    1.003 --    17 C    0.975
    43   1 H    1.001 --    18 C    0.974
    44   1 H    1.005 --    23 C    0.983
    45   1 H    1.001 --    23 C    0.983
    46   1 H    1.004 --    23 C    0.987
    47   1 H    1.004 --    24 C    0.983
    48   1 H    1.007 --    24 C    0.984
    49   1 H    1.004 --    24 C    0.987
    50   1 H    1.005 --    25 C    0.970
    51   1 H    1.006 --    25 C    0.963
    52   1 H    1.020 --    26 C    0.973
    53   1 H    1.004 --    27 C    0.986
    54   1 H    1.005 --    27 C    0.983
    55   1 H    1.007 --    27 C    0.985
    56   1 H    1.005 --    28 C    0.984
    57   1 H    1.003 --    28 C    0.985
    58   1 H    1.005 --    28 C    0.985
 ---------------------------------------------------------------------------

Topologies differ in total number of bonds
Writing topology from bond orders to xtbtopo.mol

 dipole moment from electron density (au)
     X       Y       Z   
   0.8387  -0.1244  -0.7463  total (Debye):    2.871


           -------------------------------------------------
          | TOTAL ENERGY              -92.099745173438 Eh   |
          | GRADIENT NORM               0.107293763184 Eh/α |
          | HOMO-LUMO GAP               3.799659548254 eV   |
           -------------------------------------------------

------------------------------------------------------------------------
 * finished run on 2024/03/27 at 10:53:35.869     
------------------------------------------------------------------------
 total:
 * wall-time:     0 d,  0 h,  0 min,  0.179 sec
 *  cpu-time:     0 d,  0 h,  0 min,  0.179 sec
 * ratio c/w:     0.996 speedup
 SCF:
 * wall-time:     0 d,  0 h,  0 min,  0.158 sec
 *  cpu-time:     0 d,  0 h,  0 min,  0.158 sec
 * ratio c/w:     0.999 speedup

