      -----------------------------------------------------------      
     |                   =====================                   |     
     |                           x T B                           |     
     |                   =====================                   |     
     |                         S. Grimme                         |     
     |          Mulliken Center for Theoretical Chemistry        |     
     |                    University of Bonn                     |     
      -----------------------------------------------------------      

   * xtb version 6.7.0 (08769fc) compiled by 'albert@albert-system' on 2024-03-04

   xtb is free software: you can redistribute it and/or modify it under
   the terms of the GNU Lesser General Public License as published by
   the Free Software Foundation, either version 3 of the License, or
   (at your option) any later version.
   
   xtb is distributed in the hope that it will be useful,
   but WITHOUT ANY WARRANTY; without even the implied warranty of
   MERCHANTABILITY or FITNESS FOR A PARTICULAR PURPOSE.  See the
   GNU Lesser General Public License for more details.
   
   Cite this work as:
   * C. Bannwarth, E. Caldeweyher, S. Ehlert, A. Hansen, P. Pracht,
     J. Seibert, S. Spicher, S. Grimme, WIREs Comput. Mol. Sci., 2020, 11,
     e01493. DOI: 10.1002/wcms.1493
   
   for GFN2-xTB:
   * C. Bannwarth, S. Ehlert and S. Grimme., J. Chem. Theory Comput., 2019,
     15, 1652-1671. DOI: 10.1021/acs.jctc.8b01176
   for GFN1-xTB:
   * S. Grimme, C. Bannwarth, P. Shushkov, J. Chem. Theory Comput., 2017,
     13, 1989-2009. DOI: 10.1021/acs.jctc.7b00118
   for GFN0-xTB:
   * P. Pracht, E. Caldeweyher, S. Ehlert, S. Grimme, ChemRxiv, 2019, preprint.
     DOI: 10.26434/chemrxiv.8326202.v1
   for GFN-FF:
   * S. Spicher and S. Grimme, Angew. Chem. Int. Ed., 2020, 59, 15665-15673.
     DOI: 10.1002/anie.202004239
   
   for ALPB and GBSA implicit solvation:
   * S. Ehlert, M. Stahn, S. Spicher, S. Grimme, J. Chem. Theory Comput.,
     2021, 17, 4250-4261. DOI: 10.1021/acs.jctc.1c00471
   
   for ddCOSMO and CPCM-X implicit solvation:
   * M. Stahn, S. Ehlert, S. Grimme, J. Phys. Chem. A,
     2023, XX, XXXX-XXXX. DOI: 10.1021/acs.jpca.3c04382
   
   for DFT-D4:
   * E. Caldeweyher, C. Bannwarth and S. Grimme, J. Chem. Phys., 2017,
     147, 034112. DOI: 10.1063/1.4993215
   * E. Caldeweyher, S. Ehlert, A. Hansen, H. Neugebauer, S. Spicher,
     C. Bannwarth and S. Grimme, J. Chem. Phys., 2019, 150, 154122.
     DOI: 10.1063/1.5090222
   * E. Caldeweyher, J.-M. Mewes, S. Ehlert and S. Grimme, Phys. Chem. Chem. Phys.
     2020, 22, 8499-8512. DOI: 10.1039/D0CP00502A
   
   for sTDA-xTB:
   * S. Grimme and C. Bannwarth, J. Chem. Phys., 2016, 145, 054103.
     DOI: 10.1063/1.4959605
   
   in the mass-spec context:
   * V. Asgeirsson, C. Bauer and S. Grimme, Chem. Sci., 2017, 8, 4879.
     DOI: 10.1039/c7sc00601b
   * J. Koopman and S. Grimme, ACS Omega 2019, 4, 12, 15120-15133.
     DOI: 10.1021/acsomega.9b02011
   
   for metadynamics refer to:
   * S. Grimme, J. Chem. Theory Comput., 2019, 155, 2847-2862
     DOI: 10.1021/acs.jctc.9b00143
   
   for SPH calculations refer to:
   * S. Spicher and S. Grimme, J. Chem. Theory Comput., 2021, 17, 1701-1714
     DOI: 10.1021/acs.jctc.0c01306
   
   for ONIOM refer to:
   * C. Plett, A. Katbashev, S. Ehlert, S. Grimme, M. Bursch,
     Phys. Chem. Chem. Phys., 2023, 25, 17860-17868. DOI: 10.1039/D3CP02178E
   
   for DIPRO refer to:
   * J. Kohn, N. Gildemeister, S. Grimme, D. Fazzi, A. Hansen,
     J. Chem. Phys., 2023, just accepted.
   
   for PTB refer to:
   * S. Grimme, M. Mueller, A. Hansen, J. Chem. Phys., 2023, 158, 124111.
     DOI: 10.1063/5.0137838
   
   with help from (in alphabetical order)
   P. Atkinson, C. Bannwarth, F. Bohle, G. Brandenburg, E. Caldeweyher
   M. Checinski, S. Dohm, S. Ehlert, S. Ehrlich, I. Gerasimov, C. Hölzer
   A. Katbashev, J. Kohn, J. Koopman, C. Lavigne, S. Lehtola, F. März, M. Müller,
   F. Musil, H. Neugebauer, J. Pisarek, C. Plett, P. Pracht, F. Pultar,
   J. Seibert, P. Shushkov, S. Spicher, M. Stahn, M. Steiner, T. Strunk,
   J. Stückrath, T. Rose, and J. Unsleber
   
 * started run on 2024/03/27 at 11:55:55.333     
   ID    Z sym.   atoms
    1    6 C      1, 2, 4, 6, 7, 11, 12, 15-20, 22-28
    2    8 O      3, 5, 13, 14, 21
    3    7 N      8, 10
    4   16 S      9
    5    1 H      29-58

           -------------------------------------------------
          |                Calculation Setup                |
           -------------------------------------------------

          program call               : /lustre/hpc/kemi/ree/postdoc/git/ESNUEL_ML/dep/xtb-dist/bin/xtb --gfn 1 /lustre/hpc/kemi/ree/postdoc/git/ESNUEL_ML/calculations/4e6ff359c6d225d215e4c56eeff2b94a/4e6ff359c6d225d215e4c56eeff2b94a.xyz --lmo --chrg 0 --uhf 0
          hostname                   : fend01.cluster
          coordinate file            : /lustre/hpc/kemi/ree/postdoc/git/ESNUEL_ML/calculations/4e6ff359c6d225d215e4c56eeff2b94a/4e6ff359c6d225d215e4c56eeff2b94a.xyz
          omp threads                :                     1


           -------------------------------------------------
          |                 G F N 1 - x T B                 |
           -------------------------------------------------

        Reference                      10.1021/acs.jctc.7b00118
      * Hamiltonian:
        H0-scaling (s, p, d)           1.850000    2.250000    2.000000
        zeta-weighting                 0.000000
      * Dispersion:
        s8                             2.400000
        a1                             0.630000
        a2                             5.000000
        s9                             0.000000
      * Repulsion:
        kExp                           1.500000
        rExp                           1.000000
      * Coulomb:
        alpha                          2.000000
        third order                    atomic
        anisotropic                    false
      * Halogen bond correction:
        rad-scale                      1.300000
        damping                        0.440000


          ...................................................
          :                      SETUP                      :
          :.................................................:
          :  # basis functions                 178          :
          :  # atomic orbitals                 177          :
          :  # shells                          117          :
          :  # electrons                       156          :
          :  # halogen bonds                     0          :
          :  max. iterations                   250          :
          :  Hamiltonian                  GFN1-xTB          :
          :  restarted?                      false          :
          :  GBSA solvation                  false          :
          :  PC potential                    false          :
          :  electronic temp.          300.0000000     K    :
          :  accuracy                    1.0000000          :
          :  -> integral cutoff          0.2500000E+02      :
          :  -> integral neglect         0.1000000E-07      :
          :  -> SCF convergence          0.1000000E-05 Eh   :
          :  -> wf. convergence          0.2000000E-04 e    :
          :  Broyden damping             0.4000000          :
          :  net charge                          0          :
          :  unpaired electrons                  0          :
          ...................................................

 iter      E             dE          RMSdq      gap      omega  full diag
   1    -92.6400276 -0.926400E+02  0.837E+00    3.62       0.0  T
   2    -92.9919226 -0.351895E+00  0.503E+00    2.83       1.0  T
   3    -92.9589782  0.329444E-01  0.155E+00    3.22       1.0  T
   4    -93.0176000 -0.586218E-01  0.190E-01    2.86       1.0  T
   5    -93.0192841 -0.168408E-02  0.519E-02    2.93       1.0  T
   6    -93.0194155 -0.131367E-03  0.120E-02    2.95       1.1  T
   7    -93.0194236 -0.813266E-05  0.228E-03    2.95       5.8  T
   8    -93.0194238 -0.194542E-06  0.893E-04    2.95      14.7  T
   9    -93.0194238 -0.127404E-07  0.283E-04    2.95      46.4  T
  10    -93.0194238 -0.115911E-08  0.937E-05    2.95     140.1  T
  11    -93.0194238 -0.183633E-09  0.323E-05    2.95     406.2  T

   *** convergence criteria satisfied after 11 iterations ***

         #    Occupation            Energy/Eh            Energy/eV
      -------------------------------------------------------------
         1        2.0000           -0.9005506             -24.5052
       ...           ...                  ...                  ...
        72        2.0000           -0.4683483             -12.7444
        73        2.0000           -0.4617562             -12.5650
        74        2.0000           -0.4419444             -12.0259
        75        2.0000           -0.4322085             -11.7610
        76        2.0000           -0.4160356             -11.3209
        77        2.0000           -0.4126496             -11.2288
        78        2.0000           -0.3757931             -10.2259 (HOMO)
        79                         -0.2672497              -7.2722 (LUMO)
        80                         -0.2621077              -7.1323
        81                         -0.2527791              -6.8785
        82                         -0.2414468              -6.5701
        83                         -0.2105719              -5.7300
       ...                                ...                  ...
       177                          0.6568694              17.8743
      -------------------------------------------------------------
                  HL-Gap            0.1085433 Eh            2.9536 eV
             Fermi-level           -0.3215214 Eh           -8.7490 eV
 
 localization/xTB-IFF output generation
 averaging CT terms over            1  occ. levels
 averaging CT terms over            2  virt. levels
 dipole moment from electron density (au)
     X       Y       Z   
   0.3171  -0.4444  -0.3695  total (Debye):    1.676
cpu  time for init local    0.05 s
wall time for init local    0.05 s
 doing rotations ...
 initialization of trafo matrix to unity

 converged in     33 iterations, threshold :   0.99967139D-06
 doing transformations ...
 lmo centers(Z=2) and atoms on file <lmocent.coord>
 LMO Fii/eV  ncent    charge center   contributions...
    1 sigma -19.58   1.80  11.19809   1.17281   0.38852    3  O :  0.66    4  C :  0.34
    2 sigma -19.42   1.78  12.80374   1.41182   0.67580    3  O :  0.67    2  C :  0.34
    3 sigma -19.33   1.85  -3.39104   2.45501   2.69528   14  O :  0.64   12  C :  0.35
    4 sigma -19.21   1.83  -4.71852   3.00502   1.89733   14  O :  0.65   15  C :  0.35
    5 sigma -18.93   1.86  -6.38364  -0.22331  -0.43560   21  O :  0.64   20  C :  0.37
    6 sigma -18.67   1.81  -6.54684  -1.65756  -1.26531   21  O :  0.66   22  C :  0.35
    7 pi    -17.77   1.83  10.16969   1.90147  -2.13229    5  O :  0.65    4  C :  0.35
    8 pi    -17.75   1.83  10.22020   0.93982  -2.17613    5  O :  0.65    4  C :  0.35
    9 sigma -17.57   1.99   0.66253   2.08123   2.98256   10  N :  0.56    9  S :  0.43
   10 sigma -17.53   1.88   0.43503   0.79795   4.71926   10  N :  0.61   11  C :  0.40
   11 LP    -17.42   1.04  11.60995   0.54915   2.64341    3  O :  0.98
   12 pi    -17.30   1.78  -3.61645   0.34096   4.50996   13  O :  0.67   12  C :  0.34
   13 sigma -17.21   2.00   2.27643   1.73027   0.65244    8  N :  0.52    9  S :  0.47
   14 sigma -17.17   1.89  -1.13443   1.27128   3.69578   10  N :  0.62   12  C :  0.37
   15 pi    -17.15   1.83  -3.60550   1.06736   5.13533   13  O :  0.66   12  C :  0.34
   16 sigma -16.75   1.96   3.90400   0.85780  -0.61266    8  N :  0.58    7  C :  0.42
   17 LP    -16.72   1.08  -2.92387   2.88291   0.63268   14  O :  0.96
   18 LP    -16.59   1.23  11.11000   2.69717   0.76676    3  O :  0.90    4  C :  0.09
   19 sigma -16.44   1.92   2.02170   0.10814  -0.85902    8  N :  0.59   26  C :  0.41
   20 LP    -16.37   1.12  -3.38445   4.34205   2.92621   14  O :  0.94
   21 LP    -16.35   1.06  -4.76543  -1.57008   0.20596   21  O :  0.97
   22 sigma -16.31   1.94   8.70633   1.24001  -0.04748    4  C :  0.52    6  C :  0.49
   23 LP    -16.31   1.03  -0.21391   4.15135   0.30646    9  S :  0.98
   24 sigma -16.24   2.02  -6.71371   1.84126   0.91667   20  C :  0.51   15  C :  0.49
   25 LP    -16.23   1.04   3.86864   3.61816   3.13533    9  S :  0.98
   26 LP    -16.03   1.11  -5.36558  -0.03667  -2.07673   21  O :  0.95
   27 sigma -15.88   2.01 -10.69544   1.51042   0.23780   19  C :  0.51   18  C :  0.49
   28 LP    -15.78   1.06   8.87363   1.42848  -3.90221    5  O :  0.97
   29 LP    -15.76   1.06  11.93712   1.57332  -3.46664    5  O :  0.97
   30 sigma -15.71   1.99  -9.24322   4.57255   2.40652   16  C :  0.51   17  C :  0.50
   31 sigma -15.67   1.93  15.27090   1.54481   1.13796    2  C :  0.52    1  C :  0.50
   32 sigma -15.60   1.90  -7.26229  -3.18950  -3.14354   22  C :  0.51   23  C :  0.51
   33 sigma -15.58   1.99 -10.13757  -0.43788  -1.03613   25  C :  0.50   19  C :  0.50
   34 sigma -15.57   1.95   6.39332   1.08769  -0.31299    6  C :  0.52    7  C :  0.49
   35 sigma -15.49   1.91  -7.47475   5.70513   3.33970   16  C :  0.53   41  H :  0.49
   36 sigma -15.48   2.04   7.35214   2.22069   1.38589    6  C :  0.52   34  H :  0.47
   37 sigma -15.48   2.04   7.48465   0.04956   1.36111    6  C :  0.52   35  H :  0.47
   38 sigma -15.43   1.99  14.46022   2.70293  -0.65113    2  C :  0.52   33  H :  0.48
   39 sigma -15.41   1.99  14.58350   0.47852  -0.75670    2  C :  0.52   32  H :  0.48
   40 sigma -15.41   1.98  -9.00803  -2.18323  -1.85458   25  C :  0.50   22  C :  0.50
   41 sigma -15.37   1.97  17.48941   1.63837   1.75496    1  C :  0.51   29  H :  0.49
   42 sigma -15.36   2.02 -11.25837  -2.34393  -1.35122   25  C :  0.51   50  H :  0.48
   43 sigma -15.34   2.03 -10.63946  -1.10913  -3.07807   25  C :  0.51   51  H :  0.48
   44 sigma -15.30   1.97  -7.63219  -3.92149  -0.92693   22  C :  0.51   24  C :  0.50
   45 sigma -15.29   1.96 -11.40408   5.37284   2.68888   17  C :  0.52   42  H :  0.49
   46 LP    -15.26   1.05  -5.74074   0.46436   5.13058   13  O :  0.98
   47 sigma -15.23   1.98   2.36156   0.41693   6.09512   11  C :  0.52   40  H :  0.49
   48 sigma -15.21   2.01 -12.84057   2.32415   0.51108   18  C :  0.51   43  H :  0.49
   49 LP    -15.20   1.07  -3.17457  -0.67832   6.41493   13  O :  0.97
   50 sigma -15.17   1.96  -8.43182  -6.04157  -0.45013   24  C :  0.51   49  H :  0.50
   51 sigma -15.16   1.98  16.09505   0.40616   2.95167    1  C :  0.52   30  H :  0.49
   52 sigma -15.15   1.99  -7.71200  -4.50336  -4.99102   23  C :  0.51   45  H :  0.49
   53 sigma -15.15   1.92  -7.91272  -4.69300   1.22026   24  C :  0.53   48  H :  0.49
   54 sigma -15.14   1.98   1.33568  -1.34039   5.17775   11  C :  0.52   39  H :  0.49
   55 sigma -15.14   1.98  15.97419   2.59126   3.05499    1  C :  0.52   31  H :  0.48
   56 sigma -15.13   2.00   5.57005  -0.02729  -2.13079    7  C :  0.52   37  H :  0.48
   57 sigma -15.10   1.98   0.40761  -0.25873   6.85185   11  C :  0.53   38  H :  0.48
   58 sigma -15.06   1.98  -6.80174  -2.50721  -5.28838   23  C :  0.52   46  H :  0.49
   59 sigma -15.02   1.99   5.29562   2.14357  -2.06751    7  C :  0.52   36  H :  0.49
   60 sigma -15.00   1.99  -5.60411  -4.12160  -4.43438   23  C :  0.52   44  H :  0.48
   61 sigma -14.90   1.92   0.17914   1.85795  -4.14150   27  C :  0.52   55  H :  0.50
   62 sigma -14.90   1.96   1.39778  -2.09895  -1.93931   28  C :  0.51   26  C :  0.50
   63 sigma -14.88   1.99  -6.32238  -5.56604   0.01394   24  C :  0.52   47  H :  0.48
   64 sigma -14.83   1.97   0.80837  -0.06155  -3.04860   27  C :  0.51   26  C :  0.50
   65 sigma -14.78   1.99   1.94443  -4.07702  -0.89158   28  C :  0.51   57  H :  0.49
   66 sigma -14.78   2.00   0.67841  -4.15949  -2.69619   28  C :  0.51   58  H :  0.49
   67 sigma -14.77   1.99   2.82477  -3.65421  -2.88492   28  C :  0.51   56  H :  0.49
   68 sigma -14.77   1.97  -0.44122  -0.07980  -4.98179   27  C :  0.51   54  H :  0.49
   69 sigma -14.64   2.00   1.68000   0.53754  -5.09512   27  C :  0.51   53  H :  0.49
   70 sigma -14.60   2.01  -0.18921  -0.73740  -1.13036   26  C :  0.52   52  H :  0.48
   71 delpi -14.55   2.25 -10.71392   3.65716   1.05246   17  C :  0.48   18  C :  0.46
   72 delpi -14.55   2.34  -7.23025   3.88662   1.60237   15  C :  0.48   16  C :  0.45
   73 delpi -14.50   2.43  -8.71097   0.76824   0.53713   19  C :  0.47   20  C :  0.43
   74 delpi -14.47   2.35  -7.34030   3.36067   2.43513   15  C :  0.47   16  C :  0.45
   75 delpi -14.37   2.47  -8.64621   1.32060  -0.23945   19  C :  0.47   20  C :  0.43
   76 pi    -14.36   1.44  -0.51801   1.89065   4.15980   10  N :  0.82   12  C :  0.15
   77 delpi -14.20   2.36 -10.82096   3.11769   1.86383   17  C :  0.47   18  C :  0.45
   78 LP    -12.69   1.14   2.97012  -0.25434   1.16241    8  N :  0.94
 starting deloc pi regularization ...
 thr    2.20000000000000      # pi deloc LMO           7
 files:
 coordprot.0/xtbscreen.xyz/xtblmoinfo/lmocent.coord
 with protonation site input, xtbdock and
 LMO center info written
 

 SCC (total)                   0 d,  0 h,  0 min,  0.412 sec
 SCC setup                      ...        0 min,  0.001 sec (  0.334%)
 Dispersion                     ...        0 min,  0.001 sec (  0.208%)
 classical contributions        ...        0 min,  0.000 sec (  0.077%)
 integral evaluation            ...        0 min,  0.067 sec ( 16.305%)
 iterations                     ...        0 min,  0.114 sec ( 27.596%)
 molecular gradient             ...        0 min,  0.137 sec ( 33.180%)
 printout                       ...        0 min,  0.092 sec ( 22.284%)

         :::::::::::::::::::::::::::::::::::::::::::::::::::::
         ::                     SUMMARY                     ::
         :::::::::::::::::::::::::::::::::::::::::::::::::::::
         :: total energy             -92.089909390646 Eh    ::
         :: gradient norm              0.118072748650 Eh/a0 ::
         :: HOMO-LUMO gap              2.953614383300 eV    ::
         ::.................................................::
         :: SCC energy               -93.019423798816 Eh    ::
         :: -> electrostatic           0.235214098480 Eh    ::
         :: repulsion energy           0.966737374415 Eh    ::
         :: dispersion energy         -0.037222966244 Eh    ::
         :: halogen bond corr.         0.000000000000 Eh    ::
         :: add. restraining           0.000000000000 Eh    ::
         :: total charge              -0.000000000000 e     ::
         :::::::::::::::::::::::::::::::::::::::::::::::::::::

           -------------------------------------------------
          |                Property Printout                |
           -------------------------------------------------

    * Orbital Energies and Occupations

         #    Occupation            Energy/Eh            Energy/eV
      -------------------------------------------------------------
         1        2.0000           -0.9005506             -24.5052
       ...           ...                  ...                  ...
        66        2.0000           -0.4838927             -13.1674
        67        2.0000           -0.4819869             -13.1155
        68        2.0000           -0.4769106             -12.9774
        69        2.0000           -0.4762108             -12.9584
        70        2.0000           -0.4702934             -12.7973
        71        2.0000           -0.4692231             -12.7682
        72        2.0000           -0.4683483             -12.7444
        73        2.0000           -0.4617562             -12.5650
        74        2.0000           -0.4419444             -12.0259
        75        2.0000           -0.4322085             -11.7610
        76        2.0000           -0.4160356             -11.3209
        77        2.0000           -0.4126496             -11.2288
        78        2.0000           -0.3757931             -10.2259 (HOMO)
        79                         -0.2672497              -7.2722 (LUMO)
        80                         -0.2621077              -7.1323
        81                         -0.2527791              -6.8785
        82                         -0.2414468              -6.5701
        83                         -0.2105719              -5.7300
        84                         -0.1857013              -5.0532
        85                         -0.1421636              -3.8685
        86                         -0.1391940              -3.7877
        87                         -0.1376077              -3.7445
        88                         -0.1344872              -3.6596
        89                         -0.1292221              -3.5163
       ...                                ...                  ...
       177                          0.6568694              17.8743
      -------------------------------------------------------------
                  HL-Gap            0.1085433 Eh            2.9536 eV
             Fermi-level           -0.3215214 Eh           -8.7490 eV

  Mulliken/CM5 charges         n(s)   n(p)   n(d)
     1C    -0.09538 -0.24206   1.011  3.084  0.000
     2C     0.20611  0.12372   0.994  2.800  0.000
     3O    -0.42344 -0.50676   1.700  4.723  0.000
     4C     0.57302  0.62207   0.990  2.436  0.000
     5O    -0.53056 -0.58096   1.731  4.799  0.000
     6C    -0.08623 -0.17907   1.041  3.045  0.000
     7C     0.09314  0.04558   1.011  2.896  0.000
     8N    -0.28208 -0.51177   1.478  3.804  0.000
     9S     0.08578  0.19003   1.925  3.856  0.133
    10N    -0.21131 -0.43861   1.448  3.763  0.000
    11C     0.06259 -0.01925   0.984  2.954  0.000
    12C     0.64587  0.76794   0.937  2.417  0.000
    13O    -0.56101 -0.60032   1.729  4.832  0.000
    14O    -0.41245 -0.46541   1.690  4.722  0.000
    15C     0.22766  0.25034   1.004  2.768  0.000
    16C    -0.05672 -0.10641   1.064  2.993  0.000
    17C    -0.04367 -0.09837   1.058  2.986  0.000
    18C    -0.04466 -0.09737   1.056  2.988  0.000
    19C    -0.03586 -0.04469   1.079  2.957  0.000
    20C     0.22929  0.25419   1.018  2.753  0.000
    21O    -0.42281 -0.49304   1.708  4.715  0.000
    22C     0.24500  0.23955   1.058  2.697  0.000
    23C    -0.10145 -0.24423   1.019  3.082  0.000
    24C    -0.10499 -0.24744   1.020  3.085  0.000
    25C    -0.06929 -0.16549   1.035  3.034  0.000
    26C     0.11805  0.10359   1.040  2.842  0.000
    27C    -0.10137 -0.24499   1.015  3.086  0.000
    28C    -0.09838 -0.24232   1.016  3.082  0.000
    29H     0.03508  0.08628   0.965  0.000  0.000
    30H     0.04241  0.09563   0.958  0.000  0.000
    31H     0.04271  0.09594   0.957  0.000  0.000
    32H     0.03905  0.10384   0.961  0.000  0.000
    33H     0.03949  0.10428   0.961  0.000  0.000
    34H     0.05855  0.12014   0.941  0.000  0.000
    35H     0.05998  0.12112   0.940  0.000  0.000
    36H     0.03634  0.10325   0.964  0.000  0.000
    37H     0.04311  0.11193   0.957  0.000  0.000
    38H     0.05403  0.11931   0.946  0.000  0.000
    39H     0.03833  0.10207   0.962  0.000  0.000
    40H     0.02977  0.09219   0.970  0.000  0.000
    41H     0.05157  0.10999   0.948  0.000  0.000
    42H     0.03437  0.08965   0.966  0.000  0.000
    43H     0.03415  0.09018   0.966  0.000  0.000
    44H     0.04303  0.09702   0.957  0.000  0.000
    45H     0.03002  0.08229   0.970  0.000  0.000
    46H     0.04034  0.09431   0.960  0.000  0.000
    47H     0.04637  0.10034   0.954  0.000  0.000
    48H     0.04948  0.10390   0.951  0.000  0.000
    49H     0.02844  0.08069   0.972  0.000  0.000
    50H     0.04166  0.09811   0.958  0.000  0.000
    51H     0.04338  0.10054   0.957  0.000  0.000
    52H     0.04195  0.11806   0.958  0.000  0.000
    53H     0.02760  0.08132   0.972  0.000  0.000
    54H     0.03266  0.08479   0.967  0.000  0.000
    55H     0.03901  0.09306   0.961  0.000  0.000
    56H     0.02796  0.08143   0.972  0.000  0.000
    57H     0.03245  0.08622   0.968  0.000  0.000
    58H     0.03184  0.08366   0.968  0.000  0.000

Wiberg/Mayer (AO) data.
largest (>0.10) Wiberg bond orders for each atom

 ---------------------------------------------------------------------------
     #   Z sym  total        # sym  WBO       # sym  WBO       # sym  WBO
 ---------------------------------------------------------------------------
     1   6 C    3.995 --     2 C    1.019    29 H    0.987    30 H    0.986
                            31 H    0.986
     2   6 C    3.885 --     1 C    1.019    32 H    0.973    33 H    0.973
                             3 O    0.894
     3   8 O    2.183 --     4 C    1.089     2 C    0.894     5 O    0.132
     4   6 C    3.835 --     5 O    1.708     3 O    1.089     6 C    0.980
     5   8 O    1.962 --     4 C    1.708     3 O    0.132
     6   6 C    3.994 --     7 C    1.002     4 C    0.980    35 H    0.958
                            34 H    0.955
     7   6 C    3.966 --     6 C    1.002    36 H    0.976    37 H    0.972
                             8 N    0.947
     8   7 N    3.101 --     9 S    1.081     7 C    0.947    26 C    0.937
     9  16 S    2.296 --     8 N    1.081    10 N    1.004
    10   7 N    3.353 --    12 C    1.158     9 S    1.004    11 C    0.949
                            13 O    0.130
    11   6 C    3.951 --    40 H    0.988    39 H    0.983    38 H    0.980
                            10 N    0.949
    12   6 C    3.873 --    13 O    1.620    10 N    1.158    14 O    0.998
    13   8 O    1.912 --    12 C    1.620    10 N    0.130    14 O    0.104
    14   8 O    2.171 --    12 C    0.998    15 C    0.943    13 O    0.104
    15   6 C    3.894 --    16 C    1.404    20 C    1.349    14 O    0.943
    16   6 C    3.991 --    17 C    1.440    15 C    1.404    41 H    0.972
                            19 C    0.102
    17   6 C    3.992 --    16 C    1.440    18 C    1.428    42 H    0.975
    18   6 C    3.993 --    19 C    1.432    17 C    1.428    43 H    0.974
    19   6 C    3.986 --    18 C    1.432    20 C    1.346    25 C    1.013
                            16 C    0.102
    20   6 C    3.915 --    15 C    1.349    19 C    1.346    21 O    1.027
    21   8 O    2.137 --    20 C    1.027    22 C    0.898
    22   6 C    3.895 --    23 C    0.999    24 C    0.995    25 C    0.977
                            21 O    0.898
    23   6 C    3.995 --    22 C    0.999    45 H    0.987    46 H    0.983
                            44 H    0.982
    24   6 C    3.994 --    22 C    0.995    49 H    0.987    48 H    0.983
                            47 H    0.983
    25   6 C    3.998 --    19 C    1.013    22 C    0.977    50 H    0.970
                            51 H    0.963
    26   6 C    3.958 --    28 C    1.003    27 C    1.001    52 H    0.970
                             8 N    0.937
    27   6 C    3.996 --    26 C    1.001    53 H    0.986    54 H    0.985
                            55 H    0.984
    28   6 C    3.996 --    26 C    1.003    57 H    0.985    58 H    0.985
                            56 H    0.983
    29   1 H    1.003 --     1 C    0.987
    30   1 H    1.004 --     1 C    0.986
    31   1 H    1.004 --     1 C    0.986
    32   1 H    1.012 --     2 C    0.973
    33   1 H    1.012 --     2 C    0.973
    34   1 H    1.013 --     6 C    0.955
    35   1 H    1.006 --     6 C    0.958
    36   1 H    1.007 --     7 C    0.976
    37   1 H    1.014 --     7 C    0.972
    38   1 H    1.010 --    11 C    0.980
    39   1 H    1.007 --    11 C    0.983
    40   1 H    1.015 --    11 C    0.988
    41   1 H    0.999 --    16 C    0.972
    42   1 H    1.002 --    17 C    0.975
    43   1 H    1.001 --    18 C    0.974
    44   1 H    1.006 --    23 C    0.982
    45   1 H    1.003 --    23 C    0.987
    46   1 H    1.007 --    23 C    0.983
    47   1 H    1.005 --    24 C    0.983
    48   1 H    1.001 --    24 C    0.983
    49   1 H    1.004 --    24 C    0.987
    50   1 H    1.005 --    25 C    0.970
    51   1 H    1.006 --    25 C    0.963
    52   1 H    1.022 --    26 C    0.970
    53   1 H    1.003 --    27 C    0.986
    54   1 H    1.006 --    27 C    0.985
    55   1 H    1.004 --    27 C    0.984
    56   1 H    1.006 --    28 C    0.983
    57   1 H    1.008 --    28 C    0.985
    58   1 H    1.006 --    28 C    0.985
 ---------------------------------------------------------------------------

Topologies differ in total number of bonds
Writing topology from bond orders to xtbtopo.mol

 dipole moment from electron density (au)
     X       Y       Z   
   0.3171  -0.4444  -0.3695  total (Debye):    1.676


           -------------------------------------------------
          | TOTAL ENERGY              -92.089909390646 Eh   |
          | GRADIENT NORM               0.118072748650 Eh/α |
          | HOMO-LUMO GAP               2.953614383300 eV   |
           -------------------------------------------------

------------------------------------------------------------------------
 * finished run on 2024/03/27 at 11:55:55.861     
------------------------------------------------------------------------
 total:
 * wall-time:     0 d,  0 h,  0 min,  0.526 sec
 *  cpu-time:     0 d,  0 h,  0 min,  0.475 sec
 * ratio c/w:     0.903 speedup
 SCF:
 * wall-time:     0 d,  0 h,  0 min,  0.412 sec
 *  cpu-time:     0 d,  0 h,  0 min,  0.401 sec
 * ratio c/w:     0.973 speedup

