      -----------------------------------------------------------      
     |                   =====================                   |     
     |                           x T B                           |     
     |                   =====================                   |     
     |                         S. Grimme                         |     
     |          Mulliken Center for Theoretical Chemistry        |     
     |                    University of Bonn                     |     
      -----------------------------------------------------------      

   * xtb version 6.6.0 (conda-forge) compiled by 'runner@Mac-1676020903829.local' on 2023-02-10

   xtb is free software: you can redistribute it and/or modify it under
   the terms of the GNU Lesser General Public License as published by
   the Free Software Foundation, either version 3 of the License, or
   (at your option) any later version.
   
   xtb is distributed in the hope that it will be useful,
   but WITHOUT ANY WARRANTY; without even the implied warranty of
   MERCHANTABILITY or FITNESS FOR A PARTICULAR PURPOSE.  See the
   GNU Lesser General Public License for more details.
   
   Cite this work as:
   * C. Bannwarth, E. Caldeweyher, S. Ehlert, A. Hansen, P. Pracht,
     J. Seibert, S. Spicher, S. Grimme, WIREs Comput. Mol. Sci., 2020, 11,
     e01493. DOI: 10.1002/wcms.1493
   
   for GFN2-xTB:
   * C. Bannwarth, S. Ehlert and S. Grimme., J. Chem. Theory Comput., 2019,
     15, 1652-1671. DOI: 10.1021/acs.jctc.8b01176
   for GFN1-xTB:
   * S. Grimme, C. Bannwarth, P. Shushkov, J. Chem. Theory Comput., 2017,
     13, 1989-2009. DOI: 10.1021/acs.jctc.7b00118
   for GFN0-xTB:
   * P. Pracht, E. Caldeweyher, S. Ehlert, S. Grimme, ChemRxiv, 2019, preprint.
     DOI: 10.26434/chemrxiv.8326202.v1
   for GFN-FF:
   * S. Spicher and S. Grimme, Angew. Chem. Int. Ed., 2020, 59, 15665-15673.
     DOI: 10.1002/anie.202004239
   
   for ALPB and GBSA implicit solvation:
   * S. Ehlert, M. Stahn, S. Spicher, S. Grimme, J. Chem. Theory Comput.,
     2021, 17, 4250-4261. DOI: 10.1021/acs.jctc.1c00471
   
   for DFT-D4:
   * E. Caldeweyher, C. Bannwarth and S. Grimme, J. Chem. Phys., 2017,
     147, 034112. DOI: 10.1063/1.4993215
   * E. Caldeweyher, S. Ehlert, A. Hansen, H. Neugebauer, S. Spicher,
     C. Bannwarth and S. Grimme, J. Chem. Phys., 2019, 150, 154122.
     DOI: 10.1063/1.5090222
   * E. Caldeweyher, J.-M. Mewes, S. Ehlert and S. Grimme, Phys. Chem. Chem. Phys.
     2020, 22, 8499-8512. DOI: 10.1039/D0CP00502A
   
   for sTDA-xTB:
   * S. Grimme and C. Bannwarth, J. Chem. Phys., 2016, 145, 054103.
     DOI: 10.1063/1.4959605
   
   in the mass-spec context:
   * V. Asgeirsson, C. Bauer and S. Grimme, Chem. Sci., 2017, 8, 4879.
     DOI: 10.1039/c7sc00601b
   * J. Koopman and S. Grimme, ACS Omega 2019, 4, 12, 15120-15133.
     DOI: 10.1021/acsomega.9b02011
   
   for metadynamics refer to:
   * S. Grimme, J. Chem. Theory Comput., 2019, 155, 2847-2862
     DOI: 10.1021/acs.jctc.9b00143
   
   for SPH calculations refer to:
   * S. Spicher and S. Grimme, J. Chem. Theory Comput., 2021, 17, 1701-1714
     DOI: 10.1021/acs.jctc.0c01306
   
   with help from (in alphabetical order)
   P. Atkinson, C. Bannwarth, F. Bohle, G. Brandenburg, E. Caldeweyher
   M. Checinski, S. Dohm, S. Ehlert, S. Ehrlich, I. Gerasimov, C. Hölzer
   A. Katbashev, J. Koopman, C. Lavigne, S. Lehtola, F. März, M. Müller,
   F. Musil, H. Neugebauer, J. Pisarek, C. Plett, P. Pracht, F. Pultar,
   J. Seibert, P. Shushkov, S. Spicher, M. Stahn, M. Steiner, T. Strunk,
   J. Stückrath, T. Rose, and J. Unsleber
   
 * started run on 2024/06/12 at 12:11:40.016     

           -------------------------------------------------
          |                Calculation Setup                |
           -------------------------------------------------

          program call               : /Users/nicolairee/opt/miniforge3/envs/alfabet/bin/xtb --gfn 1 /Users/nicolairee/KU_data/esnuelML/ESNUEL_ML/desc_calcs/2979b916d8cde6f56e07b7c1698d8e61/2979b916d8cde6f56e07b7c1698d8e61_0.xyz --lmo --chrg -1 --uhf 0
          coordinate file            : /Users/nicolairee/KU_data/esnuelML/ESNUEL_ML/desc_calcs/2979b916d8cde6f56e07b7c1698d8e61/2979b916d8cde6f56e07b7c1698d8e61_0.xyz
          omp threads                :                     1

   ID    Z sym.   atoms
    1    6 C      1, 3, 5, 7-10, 12, 14, 17, 18, 21, 23
    2    8 O      2, 4, 13, 19, 22, 24
    3    7 N      6, 11, 15, 16, 20
    4    1 H      25-38

           -------------------------------------------------
          |                 G F N 1 - x T B                 |
           -------------------------------------------------

        Reference                      10.1021/acs.jctc.7b00118
      * Hamiltonian:
        H0-scaling (s, p, d)           1.850000    2.250000    2.000000
        zeta-weighting                 0.000000
      * Dispersion:
        s8                             2.400000
        a1                             0.630000
        a2                             5.000000
        s9                             0.000000
      * Repulsion:
        kExp                           1.500000
        rExp                           1.000000
      * Coulomb:
        alpha                          2.000000
        third order                    atomic
        anisotropic                    false
      * Halogen bond correction:
        rad-scale                      1.300000
        damping                        0.440000


          ...................................................
          :                      SETUP                      :
          :.................................................:
          :  # basis functions                 124          :
          :  # atomic orbitals                 124          :
          :  # shells                           76          :
          :  # electrons                       128          :
          :  # halogen bonds                     0          :
          :  max. iterations                   250          :
          :  Hamiltonian                  GFN1-xTB          :
          :  restarted?                      false          :
          :  GBSA solvation                  false          :
          :  PC potential                    false          :
          :  electronic temp.          300.0000000     K    :
          :  accuracy                    1.0000000          :
          :  -> integral cutoff          0.2500000E+02      :
          :  -> integral neglect         0.1000000E-07      :
          :  -> SCF convergence          0.1000000E-05 Eh   :
          :  -> wf. convergence          0.2000000E-04 e    :
          :  Broyden damping             0.4000000          :
          ...................................................

 iter      E             dE          RMSdq      gap      omega  full diag
   1    -79.9127985 -0.799128E+02  0.861E+00    3.03       0.0  T
   2    -80.1749780 -0.262180E+00  0.517E+00    1.95       1.0  T
   3    -80.1449594  0.300185E-01  0.176E+00    1.16       1.0  T
   4    -80.1927769 -0.478174E-01  0.308E-01    1.01       1.0  T
   5    -80.1970902 -0.431335E-02  0.759E-02    1.11       1.0  T
   6    -80.1972754 -0.185176E-03  0.190E-02    1.16       1.0  T
   7    -80.1972838 -0.837876E-05  0.497E-03    1.18       3.3  T
   8    -80.1972844 -0.632482E-06  0.145E-03    1.19      11.2  T
   9    -80.1972845 -0.461984E-07  0.611E-04    1.19      26.6  T
  10    -80.1972845 -0.471469E-08  0.127E-04    1.19     127.7  T
  11    -80.1972845 -0.265487E-09  0.388E-05    1.19     418.5  T

   *** convergence criteria satisfied after 11 iterations ***

         #    Occupation            Energy/Eh            Energy/eV
      -------------------------------------------------------------
         1        2.0000           -0.7662646             -20.8511
       ...           ...                  ...                  ...
        58        2.0000           -0.3379602              -9.1964
        59        2.0000           -0.3270584              -8.8997
        60        2.0000           -0.3257008              -8.8628
        61        2.0000           -0.3097217              -8.4280
        62        2.0000           -0.2893029              -7.8723
        63        2.0000           -0.2619570              -7.1282
        64        2.0000           -0.2612059              -7.1078 (HOMO)
        65                         -0.2175552              -5.9200 (LUMO)
        66                         -0.1769832              -4.8160
        67                         -0.1633962              -4.4462
        68                         -0.1179423              -3.2094
        69                         -0.0936959              -2.5496
       ...                                ...                  ...
       124                          0.8854540              24.0944
      -------------------------------------------------------------
                  HL-Gap            0.0436506 Eh            1.1878 eV
             Fermi-level           -0.2392049 Eh           -6.5091 eV

 localization/xTB-IFF output generation
 averaging CT terms over            2  occ. levels
 averaging CT terms over            1  virt. levels
 dipole moment from electron density (au)
     X       Y       Z   
  -0.7726  -0.1060   0.4992  total (Debye):    2.354
cpu  time for init local    0.01 s
wall time for init local    0.01 s
 doing rotations ...
 initialization of trafo matrix to unity

 converged in     35 iterations, threshold :   0.99886682D-06
 doing transformations ...
 lmo centers(Z=2) and atoms on file <lmocent.coord>
 LMO Fii/eV  ncent    charge center   contributions...
    1 sigma -17.83   1.78  -8.16349   1.31432  -0.92266   19O :  0.67   17C :  0.33
    2 sigma -17.74   1.78  -7.27434   0.12374  -0.39398   19O :  0.67   14C :  0.33
    3 sigma -16.27   1.83   9.78539  -0.74441   1.50883    2O :  0.65    1C :  0.36
    4 sigma -16.17   1.79   8.57155  -0.01487   0.61952    2O :  0.67    3C :  0.34
    5 LP    -16.02   1.02  -5.74895   2.04824  -0.95922   19O :  0.99
    6 sigma -15.40   2.02 -10.58082  -1.10933  -0.05309   16N :  0.50   15N :  0.49
    7 sigma -15.20   1.84   5.20760   4.81319  -2.10340   24O :  0.64   23C :  0.37
    8 pi    -14.74   1.35  -7.46908   0.73878  -1.12335   19O :  0.85   17C :  0.07
    9 sigma -14.52   1.76   5.04247   6.24506  -2.72076   24O :  0.69   38H :  0.31
   10 sigma -14.43   1.87  -1.92712  -1.93054   0.62160   11N :  0.62    8C :  0.38
   11 sigma -14.39   1.95  -9.96960   2.85644  -1.82186   17C :  0.52   18C :  0.49
   12 pi    -14.39   1.84  -5.26953  -3.97255   1.94175   13O :  0.65   12C :  0.34
   13 pi    -14.39   1.84  -5.23890  -4.36054   1.08048   13O :  0.65   12C :  0.34
   14 sigma -14.36   1.86  -3.04234  -0.55160  -0.03933   11N :  0.64   34H :  0.37
   15 pi    -14.14   1.83   9.19951   1.58891  -1.53105    4O :  0.65    3C :  0.34
   16 pi    -14.13   1.84   9.21307   2.28019  -0.86087    4O :  0.65    3C :  0.34
   17 sigma -14.12   1.98  -6.37999  -2.05538   0.52050   14C :  0.54   12C :  0.46
   18 LP    -14.06   1.04   7.66832  -1.94481   1.55703    2O :  0.98
   19 sigma -13.68   2.00  -9.61979   4.15315  -3.58697   18C :  0.52   35H :  0.48
   20 sigma -13.65   1.99 -11.52707   4.31023  -2.53282   18C :  0.52   36H :  0.49
   21 sigma -13.63   2.01  -9.68899   5.04585  -1.60872   18C :  0.52   37H :  0.47
   22 pi    -13.46   2.08 -10.58521   0.76432  -0.36139   16N :  0.55   17C :  0.42
   23 pi    -13.45   2.08 -10.55195   0.35176  -1.25652   16N :  0.56   17C :  0.42
   24 pi    -13.39   2.08  -8.73106  -1.94460  -0.15441   15N :  0.54   14C :  0.44
   25 pi    -13.34   2.10  -8.75854  -1.54363   0.74232   15N :  0.53   14C :  0.44
   26 sigma -13.32   1.96   0.78238   0.95149  -0.49358   20N :  0.56    7C :  0.44
   27 sigma -13.32   2.02   4.51482   0.38311  -0.18057    6N :  0.54    5C :  0.45
   28 LP    -13.23   1.19   8.38925   0.74131   2.04484    2O :  0.91    3C :  0.07
   29 sigma -13.17   1.96   0.84518   2.66541  -1.09615   20N :  0.58   21C :  0.41
   30 sigma -12.94   1.92  11.98369   0.15330   2.15306    1C :  0.52   26H :  0.50
   31 sigma -12.88   1.98  11.51572  -1.95765   2.71767    1C :  0.51   25H :  0.50
   32 pi    -12.86   1.75  -3.67660  -2.14544   0.13351   11N :  0.70   12C :  0.29
   33 pi    -12.85   1.75  -3.70659  -1.75296   1.00322   11N :  0.70   12C :  0.29
   34 sigma -12.75   1.98  11.93363  -1.45676   0.58037    1C :  0.52   27H :  0.49
   35 pi    -12.65   1.80   1.03890   4.84702  -2.80637   22O :  0.67   21C :  0.32
   36 pi    -12.65   1.79   0.99968   5.22344  -1.94766   22O :  0.68   21C :  0.32
   37 sigma -12.56   2.00   6.80339   1.29313  -0.51777    3C :  0.53    5C :  0.47
   38 LP    -12.55   1.02  -6.81080  -5.64814   2.12314   13O :  0.99
   39 LP    -12.52   1.07   6.68406   4.98290  -3.59449   24O :  0.97
   40 LP    -12.45   1.08   6.42834   6.02902  -0.98881   24O :  0.96
   41 LP    -12.43   1.05  -3.68802  -5.54993   2.18997   13O :  0.98
   42 sigma -12.29   1.96  -0.19181  -2.58921   2.27431    8C :  0.51   10C :  0.50
   43 LP    -12.28   1.01 -13.30840  -0.20329  -0.55945   16N :  1.00
   44 LP    -12.28   1.05   9.26720   3.45783  -2.78430    4O :  0.97
   45 sigma -12.21   1.99  -0.11629  -3.55777   0.11960    8C :  0.50    9C :  0.50
   46 LP    -12.14   1.07  11.37645   1.86824  -1.16715    4O :  0.97
   47 LP    -12.10   1.02 -10.65827  -3.77445   1.14475   15N :  0.99
   48 sigma -12.02   1.97  -0.00133  -4.53995  -1.97780    9C :  0.51   30H :  0.50
   49 sigma -11.99   1.98   1.49182  -5.13657  -0.46445    9C :  0.51   29H :  0.49
   50 sigma -11.97   1.98  -0.22434  -1.67148   4.40406   10C :  0.51   33H :  0.49
   51 sigma -11.93   1.98   0.46941  -1.33534   0.43808    8C :  0.53    7C :  0.48
   52 sigma -11.93   1.99   1.33660  -3.16010   3.93465   10C :  0.51   32H :  0.49
   53 sigma -11.90   1.98  -0.75311  -3.79859   4.17153   10C :  0.52   31H :  0.49
   54 sigma -11.88   1.99  -0.59689  -5.79279  -0.26508    9C :  0.52   28H :  0.49
   55 sigma -11.79   1.98   3.07055   3.63539  -1.67045   23C :  0.54   21C :  0.46
   56 pi    -11.74   2.07   2.89261  -0.05344   0.48147    6N :  0.58    7C :  0.38
   57 pi    -11.69   2.07   2.94006  -0.44555  -0.40178    6N :  0.58    7C :  0.38
   58 delpi -11.08   2.28   4.90729   2.61213  -0.60579    5C :  0.49   23C :  0.44
   59 delpi -11.01   2.23   4.88328   2.22093  -1.56581    5C :  0.49   23C :  0.45
   60 LP    -10.93   1.04  -0.93832   5.96137  -2.86926   22O :  0.98
   61 LP    -10.70   1.08   2.10397   6.86387  -3.12529   22O :  0.96
   62 LP    -10.18   1.09  -1.88505   1.77333  -1.02984   20N :  0.96
   63 LP    -10.15   1.04   4.63562  -2.14091   0.96091    6N :  0.98
   64 pi     -9.61   2.15   0.81659   1.79308  -1.32223   20N :  0.65   21C :  0.18    7C :  0.12
 starting deloc pi regularization ...
 thr    2.2000000000000002      # pi deloc LMO          10
 files:
 coordprot.0/xtbscreen.xyz/xtblmoinfo/lmocent.coord
 with protonation site input, xtbdock and
 LMO center info written


 SCC (total)                   0 d,  0 h,  0 min,  0.065 sec
 SCC setup                      ...        0 min,  0.000 sec (  0.648%)
 Dispersion                     ...        0 min,  0.001 sec (  1.178%)
 classical contributions        ...        0 min,  0.000 sec (  0.391%)
 integral evaluation            ...        0 min,  0.008 sec ( 11.644%)
 iterations                     ...        0 min,  0.016 sec ( 25.326%)
 molecular gradient             ...        0 min,  0.021 sec ( 31.917%)
 printout                       ...        0 min,  0.019 sec ( 28.881%)

         :::::::::::::::::::::::::::::::::::::::::::::::::::::
         ::                     SUMMARY                     ::
         :::::::::::::::::::::::::::::::::::::::::::::::::::::
         :: total energy             -79.501188843972 Eh    ::
         :: gradient norm              0.120269988284 Eh/a0 ::
         :: HOMO-LUMO gap              1.187794168182 eV    ::
         ::.................................................::
         :: SCC energy               -80.197284455946 Eh    ::
         :: -> electrostatic           0.416389520649 Eh    ::
         :: repulsion energy           0.718623217647 Eh    ::
         :: dispersion energy         -0.022527605673 Eh    ::
         :: halogen bond corr.         0.000000000000 Eh    ::
         :: add. restraining           0.000000000000 Eh    ::
         :: total charge              -0.999999999896 e     ::
         :::::::::::::::::::::::::::::::::::::::::::::::::::::

           -------------------------------------------------
          |                Property Printout                |
           -------------------------------------------------

    * Orbital Energies and Occupations

         #    Occupation            Energy/Eh            Energy/eV
      -------------------------------------------------------------
         1        2.0000           -0.7662646             -20.8511
       ...           ...                  ...                  ...
        52        2.0000           -0.3810624             -10.3692
        53        2.0000           -0.3697846             -10.0624
        54        2.0000           -0.3649128              -9.9298
        55        2.0000           -0.3636837              -9.8963
        56        2.0000           -0.3631849              -9.8828
        57        2.0000           -0.3463279              -9.4241
        58        2.0000           -0.3379602              -9.1964
        59        2.0000           -0.3270584              -8.8997
        60        2.0000           -0.3257008              -8.8628
        61        2.0000           -0.3097217              -8.4280
        62        2.0000           -0.2893029              -7.8723
        63        2.0000           -0.2619570              -7.1282
        64        2.0000           -0.2612059              -7.1078 (HOMO)
        65                         -0.2175552              -5.9200 (LUMO)
        66                         -0.1769832              -4.8160
        67                         -0.1633962              -4.4462
        68                         -0.1179423              -3.2094
        69                         -0.0936959              -2.5496
        70                         -0.0829156              -2.2562
        71                         -0.0795397              -2.1644
        72                         -0.0475762              -1.2946
        73                         -0.0137382              -0.3738
        74                         -0.0135410              -0.3685
        75                         -0.0132063              -0.3594
       ...                                ...                  ...
       124                          0.8854540              24.0944
      -------------------------------------------------------------
                  HL-Gap            0.0436506 Eh            1.1878 eV
             Fermi-level           -0.2392049 Eh           -6.5091 eV

  Mulliken/CM5 charges         n(s)   n(p)   n(d)
     1C     0.17782  0.05868   0.968  2.855  0.000
     2O    -0.41808 -0.49783   1.694  4.724  0.000
     3C     0.55843  0.62106   0.993  2.449  0.000
     4O    -0.55198 -0.59597   1.733  4.818  0.000
     5C     0.07069  0.14634   1.033  2.897  0.000
     6N    -0.42626 -0.60545   1.539  3.887  0.000
     7C     0.28077  0.43876   1.017  2.703  0.000
     8C     0.15441  0.19602   1.065  2.781  0.000
     9C    -0.09217 -0.22887   1.015  3.077  0.000
    10C    -0.09216 -0.22885   1.015  3.077  0.000
    11N    -0.33774 -0.67631   1.440  3.897  0.000
    12C     0.45122  0.55569   0.977  2.571  0.000
    13O    -0.57025 -0.61118   1.729  4.841  0.000
    14C     0.32773  0.44642   1.023  2.650  0.000
    15N    -0.20518 -0.30306   1.583  3.623  0.000
    16N    -0.26069 -0.36227   1.581  3.679  0.000
    17C     0.37355  0.47658   1.011  2.616  0.000
    18C    -0.09625 -0.23209   1.006  3.090  0.000
    19O    -0.36036 -0.41565   1.710  4.650  0.000
    20N    -0.47517 -0.66405   1.532  3.943  0.000
    21C     0.44133  0.55432   0.980  2.579  0.000
    22O    -0.64509 -0.69170   1.734  4.911  0.000
    23C     0.18835  0.21897   1.039  2.773  0.000
    24O    -0.52044 -0.70647   1.712  4.808  0.000
    25H     0.01562  0.07478   0.984  0.000  0.000
    26H     0.02854  0.08995   0.971  0.000  0.000
    27H     0.02856  0.08999   0.971  0.000  0.000
    28H     0.03650  0.09358   0.964  0.000  0.000
    29H     0.02976  0.08486   0.970  0.000  0.000
    30H     0.02637  0.08169   0.974  0.000  0.000
    31H     0.03626  0.09335   0.964  0.000  0.000
    32H     0.03092  0.08607   0.969  0.000  0.000
    33H     0.02641  0.08174   0.974  0.000  0.000
    34H     0.24372  0.46151   0.756  0.000  0.000
    35H     0.06297  0.11707   0.937  0.000  0.000
    36H     0.04192  0.09632   0.958  0.000  0.000
    37H     0.06296  0.11706   0.937  0.000  0.000
    38H     0.35702  0.53894   0.643  0.000  0.000

Wiberg/Mayer (AO) data.
largest (>0.10) Wiberg bond orders for each atom

 ---------------------------------------------------------------------------
     #   Z sym  total        # sym  WBO       # sym  WBO       # sym  WBO
 ---------------------------------------------------------------------------
     1   6 C    3.912 --    25 H    0.988    26 H    0.981    27 H    0.981
                             2 O    0.937
     2   8 O    2.171 --     3 C    1.047     1 C    0.937     4 O    0.122
     3   6 C    3.826 --     4 O    1.676     2 O    1.047     5 C    1.007
     4   8 O    1.938 --     3 C    1.676     2 O    0.122
     5   6 C    3.964 --    23 C    1.536     6 N    1.170     3 C    1.007
     6   7 N    2.996 --     7 C    1.512     5 C    1.170
     7   6 C    3.959 --     6 N    1.512    20 N    1.334     8 C    0.948
     8   6 C    3.927 --    10 C    0.988     9 C    0.988     7 C    0.948
                            11 N    0.928
     9   6 C    3.993 --     8 C    0.988    30 H    0.986    29 H    0.985
                            28 H    0.984
    10   6 C    3.993 --     8 C    0.988    33 H    0.986    32 H    0.985
                            31 H    0.984
    11   7 N    3.373 --    12 C    1.263     8 C    0.928    34 H    0.865
                            13 O    0.196
    12   6 C    3.930 --    13 O    1.573    11 N    1.263    14 C    1.014
    13   8 O    1.898 --    12 C    1.573    11 N    0.196
    14   6 C    3.866 --    15 N    1.623    19 O    1.036    12 C    1.014
    15   7 N    2.998 --    14 C    1.623    16 N    1.187
    16   7 N    2.988 --    17 C    1.631    15 N    1.187
    17   6 C    3.883 --    16 N    1.631    19 O    1.069    18 C    1.031
    18   6 C    3.994 --    17 C    1.031    36 H    0.986    37 H    0.967
                            35 H    0.967
    19   8 O    2.307 --    17 C    1.069    14 C    1.036
    20   7 N    3.032 --     7 C    1.334    21 C    1.270    22 O    0.125
    21   6 C    3.926 --    22 O    1.493    20 N    1.270    23 C    1.035
    22   8 O    1.840 --    21 C    1.493    20 N    0.125
    23   6 C    3.907 --     5 C    1.536    24 O    1.059    21 C    1.035
    24   8 O    2.047 --    23 C    1.059    38 H    0.833
    25   1 H    1.019 --     1 C    0.988
    26   1 H    1.015 --     1 C    0.981
    27   1 H    1.015 --     1 C    0.981
    28   1 H    1.012 --     9 C    0.984
    29   1 H    1.013 --     9 C    0.985
    30   1 H    1.008 --     9 C    0.986
    31   1 H    1.012 --    10 C    0.984
    32   1 H    1.013 --    10 C    0.985
    33   1 H    1.008 --    10 C    0.986
    34   1 H    0.977 --    11 N    0.865
    35   1 H    1.002 --    18 C    0.967
    36   1 H    1.004 --    18 C    0.986
    37   1 H    1.002 --    18 C    0.967
    38   1 H    0.901 --    24 O    0.833
 ---------------------------------------------------------------------------

Topologies differ in total number of bonds
Writing topology from bond orders to xtbtopo.mol

 dipole moment from electron density (au)
     X       Y       Z   
  -0.7726  -0.1060   0.4992  total (Debye):    2.354


           -------------------------------------------------
          | TOTAL ENERGY              -79.501188843972 Eh   |
          | GRADIENT NORM               0.120269988284 Eh/α |
          | HOMO-LUMO GAP               1.187794168182 eV   |
           -------------------------------------------------

------------------------------------------------------------------------
 * finished run on 2024/06/12 at 12:11:40.099     
------------------------------------------------------------------------
 total:
 * wall-time:     0 d,  0 h,  0 min,  0.082 sec
 *  cpu-time:     0 d,  0 h,  0 min,  0.075 sec
 * ratio c/w:     0.905 speedup
 SCF:
 * wall-time:     0 d,  0 h,  0 min,  0.065 sec
 *  cpu-time:     0 d,  0 h,  0 min,  0.063 sec
 * ratio c/w:     0.969 speedup

